/*--------------------------------*- C++ -*----------------------------------*\
  =========                 |
  \\      /  F ield         | OpenFOAM: The Open Source CFD Toolbox
   \\    /   O peration     | Website:  https://openfoam.org
    \\  /    A nd           | Version:  6
     \\/     M anipulation  |
\*---------------------------------------------------------------------------*/
FoamFile
{
    version     2.0;
    format      ascii;
    class       volVectorField;
    location    "4.77e-05";
    object      U;
}
// * * * * * * * * * * * * * * * * * * * * * * * * * * * * * * * * * * * * * //

dimensions      [0 1 -1 0 0 0 0];

internalField   nonuniform List<vector> 
8192
(
(-88.322 0 -2.80523993644e-10)
(-88.3219999996 0 -7.79823472311e-11)
(-88.3220000001 0 -6.89797514882e-11)
(-88.3220000003 0 -2.65272986541e-10)
(-88.3219999995 0 -6.3004385377e-11)
(-88.3219999997 0 9.70160642587e-12)
(-88.3220000003 0 -1.87049664084e-12)
(-88.322 0 1.02563339612e-10)
(-88.322 0 -2.58675060806e-10)
(-88.322 0 -5.72539430146e-10)
(-88.3219999999 0 -7.07745717726e-10)
(-88.322 0 3.62463303356e-10)
(-88.3220000002 0 6.57729573649e-10)
(-88.322 0 -7.4309372948e-10)
(-88.3219999998 0 -6.20141377759e-10)
(-88.3219999999 0 3.5508145241e-10)
(-88.3219999998 0 2.90055441118e-10)
(-88.3219999999 0 6.43324216948e-10)
(-88.3220000002 0 -4.20717757007e-10)
(-88.322 0 -5.61638315609e-10)
(-88.3219999997 0 2.6104873658e-10)
(-88.3220000003 0 3.80958592605e-10)
(-88.3220000003 0 -5.9507426576e-10)
(-88.3219999998 0 -5.62375204614e-10)
(-88.322 0 1.67530773661e-10)
(-88.3219999999 0 1.76400109241e-10)
(-88.3219999999 0 2.20033907984e-10)
(-88.3219999999 0 1.85531189826e-10)
(-88.3220000002 0 3.0177703997e-10)
(-88.3220000002 0 -1.54309038914e-10)
(-88.3219999999 0 2.12027314882e-10)
(-88.3219999996 0 -4.94406092808e-11)
(-88.3219999989 0 1.21808340471e-10)
(-88.3220000018 0 5.36644201946e-10)
(-88.3220000026 0 -8.28630477587e-10)
(-88.3219999987 0 -6.24018766047e-10)
(-88.3219999996 0 -1.46893146183e-11)
(-88.3219999996 0 -5.57250836607e-10)
(-88.3219999986 0 1.7057856418e-10)
(-88.3220000006 0 1.70296575388e-10)
(-88.3220000001 0 -5.17505298571e-11)
(-88.3219999998 0 5.90054921891e-11)
(-88.3220000002 0 -1.34140570241e-11)
(-88.322 0 -1.49711972704e-11)
(-88.322 0 -5.68625834641e-11)
(-88.322 0 -3.60809213831e-11)
(-88.322 0 -1.89528174391e-11)
(-88.322 0 -1.87796809441e-11)
(-88.322 0 2.63785070576e-11)
(-88.3219999998 0 -9.03666467279e-11)
(-88.3219999999 0 1.204678996e-10)
(-88.3220000006 0 -5.66915879127e-11)
(-88.3219999994 0 -2.05246299e-10)
(-88.3219999993 0 3.34605101789e-10)
(-88.3220000012 0 1.83993977395e-10)
(-88.3220000006 0 -2.10567525981e-10)
(-88.322 0 -3.31644691369e-11)
(-88.3219999998 0 -1.70402110648e-10)
(-88.3220000002 0 -4.08756670759e-11)
(-88.3219999992 0 -2.99810273604e-10)
(-88.3219999984 0 3.35788876272e-10)
(-88.3219999998 0 3.89338859162e-10)
(-88.3220000009 0 3.58439263373e-10)
(-88.3220000014 0 -2.05251146021e-11)
(-88.322 0 -3.20487680443e-10)
(-88.3219999999 0 -8.69797553284e-11)
(-88.3220000002 0 1.21516117155e-10)
(-88.3219999997 0 1.22541849299e-11)
(-88.322 0 2.41425950691e-10)
(-88.3220000002 0 -1.17645406387e-10)
(-88.3219999995 0 4.78706792656e-11)
(-88.3220000005 0 4.98557910508e-12)
(-88.3220000013 0 -6.84131929743e-12)
(-88.3220000008 0 -6.02437982054e-11)
(-88.3219999982 0 6.71512125523e-11)
(-88.3219999973 0 -2.3716705523e-10)
(-88.322000002 0 -2.41255494301e-11)
(-88.3220000025 0 -1.80637462016e-10)
(-88.321999998 0 -3.06587357535e-10)
(-88.3219999983 0 2.98456832191e-10)
(-88.3219999996 0 2.24009132705e-10)
(-88.3220000016 0 1.49017514995e-10)
(-88.3220000022 0 -3.32961480517e-10)
(-88.3219999988 0 -1.90626641493e-10)
(-88.3219999984 0 -5.5245700137e-11)
(-88.3220000014 0 -1.02558159116e-11)
(-88.3220000016 0 2.02416545121e-10)
(-88.3219999987 0 -6.8691233162e-11)
(-88.3219999986 0 4.36428085281e-10)
(-88.322 0 -1.98271339961e-10)
(-88.3220000001 0 3.13494907013e-10)
(-88.3219999999 0 2.93521991933e-10)
(-88.3220000005 0 -6.54483882243e-11)
(-88.322 0 1.71317377049e-11)
(-88.3219999998 0 7.26882075654e-11)
(-88.3220000004 0 2.01649187513e-11)
(-88.3219999998 0 -2.26399963125e-10)
(-88.3220000003 0 -4.57521906774e-10)
(-88.322 0 5.52827747155e-10)
(-88.3219999995 0 6.32183014969e-10)
(-88.3220000001 0 4.06820328317e-12)
(-88.322 0 3.04675024849e-10)
(-88.322 0 -1.70267630355e-10)
(-88.322 0 -2.13808565613e-10)
(-88.322 0 1.45545781427e-10)
(-88.322 0 -8.38472436472e-11)
(-88.322 0 6.63237737758e-11)
(-88.322 0 -1.95076896925e-10)
(-88.322 0 -3.95683151447e-10)
(-88.322 0 -3.35908373159e-10)
(-88.322 0 -3.26239939173e-10)
(-88.322 0 -3.92861327249e-10)
(-88.322 0 -3.70935197085e-10)
(-88.322 0 -8.89605310283e-11)
(-88.322 0 3.05031198891e-10)
(-88.3220000001 0 -8.9195238116e-11)
(-88.3219999998 0 5.81840171451e-11)
(-88.322 0 -1.03510174979e-10)
(-88.3220000001 0 -2.8250026831e-10)
(-88.3219999999 0 4.14012972285e-10)
(-88.322 0 -1.73862900591e-10)
(-88.3220000001 0 -1.68067071223e-10)
(-88.322 0 -3.84877758064e-10)
(-88.3219999999 0 8.74616843471e-10)
(-88.322 0 3.31675398709e-10)
(-88.3220000001 0 -8.02919564472e-10)
(-88.3220000001 0 -1.08489577123e-09)
(-88.322 0 -4.44271385689e-10)
(-88.3219999993 0 7.27517728196e-11)
(-88.3219999988 0 9.90441129098e-11)
(-88.322 0 -3.01674878486e-11)
(-88.322 0 1.93228484006e-10)
(-88.3219999999 0 -1.53594468212e-10)
(-88.322 0 1.4189266215e-10)
(-88.322 0 -4.20296215356e-11)
(-88.322 0 -9.91629269495e-11)
(-88.3220000002 0 2.2978248146e-10)
(-88.3219999998 0 5.34171265646e-10)
(-88.3220000003 0 6.66287510101e-10)
(-88.3220000002 0 -2.58909512708e-10)
(-88.322 0 -5.65696272044e-10)
(-88.3220000005 0 5.37840917319e-10)
(-88.3219999989 0 5.57240639719e-10)
(-88.3219999988 0 -3.74596085504e-10)
(-88.3220000001 0 -2.96712278887e-10)
(-88.3220000009 0 -5.79715314569e-10)
(-88.3220000009 0 4.52379474315e-10)
(-88.3219999994 0 5.20560123441e-10)
(-88.3219999993 0 -2.23068272935e-10)
(-88.3219999998 0 -2.1604252085e-10)
(-88.3220000004 0 5.65797238705e-10)
(-88.3219999994 0 5.58569853928e-10)
(-88.3220000003 0 -8.82647351947e-11)
(-88.322 0 -1.62589484696e-10)
(-88.3219999989 0 -9.05562925672e-11)
(-88.3220000007 0 9.3345318917e-11)
(-88.3220000007 0 -7.59079391962e-11)
(-88.3219999999 0 5.05068992862e-11)
(-88.3219999999 0 8.75917911794e-11)
(-88.3220000003 0 -7.74161593577e-12)
(-88.322 0 -4.71222228546e-10)
(-88.322 0 4.45721513428e-10)
(-88.3220000002 0 6.2943616398e-10)
(-88.322 0 -4.06008514573e-10)
(-88.3220000003 0 -6.96584388926e-10)
(-88.322 0 8.2921452279e-10)
(-88.3219999997 0 4.10656275877e-10)
(-88.3219999999 0 -3.64489617083e-10)
(-88.322 0 -4.45046641405e-10)
(-88.322 0 1.9026871569e-10)
(-88.3220000004 0 -2.80880724636e-10)
(-88.322000001 0 -6.48047752203e-11)
(-88.3220000003 0 -3.46569123331e-10)
(-88.3219999998 0 6.07965127108e-11)
(-88.3220000001 0 -6.03473200672e-10)
(-88.3219999999 0 -5.94972840009e-10)
(-88.3219999994 0 5.02067050415e-10)
(-88.3219999986 0 2.25011462198e-11)
(-88.322 0 -3.99330926693e-10)
(-88.322000001 0 1.77713668112e-10)
(-88.3219999995 0 -4.45684784291e-10)
(-88.322 0 4.11867430782e-10)
(-88.322 0 7.34059399543e-11)
(-88.3220000004 0 -3.47063974397e-10)
(-88.3220000012 0 -3.7426674905e-10)
(-88.3220000003 0 -3.97418431973e-10)
(-88.3219999982 0 -1.66893050157e-10)
(-88.3219999978 0 -1.90633230219e-10)
(-88.3220000019 0 -1.57982188571e-10)
(-88.3220000027 0 8.48661811893e-11)
(-88.3220000001 0 5.68599037265e-11)
(-88.3219999999 0 7.85465954886e-11)
(-88.322 0 6.31310010373e-10)
(-88.322 0 1.88447934049e-10)
(-88.322 0 -4.97423820162e-11)
(-88.322 0 1.60837003605e-10)
(-88.322 0 -1.93614366191e-10)
(-88.322 0 3.84422948937e-11)
(-88.322 0 1.37274430586e-11)
(-88.322 0 3.76924136305e-11)
(-88.322 0 2.82220322133e-11)
(-88.322 0 9.50488726779e-11)
(-88.3219999998 0 -3.35626096438e-11)
(-88.3219999997 0 1.67069321522e-10)
(-88.3220000005 0 -1.39709790808e-11)
(-88.3220000002 0 3.92034769852e-10)
(-88.3219999998 0 3.45706453778e-10)
(-88.322 0 -2.87337787238e-10)
(-88.322 0 -2.14501150078e-10)
(-88.322 0 -2.88805047845e-10)
(-88.322 0 4.98277317898e-10)
(-88.322 0 4.46325583102e-10)
(-88.322 0 -5.07692342851e-10)
(-88.3219999999 0 -5.08418757479e-10)
(-88.322 0 3.2208640678e-10)
(-88.322 0 5.08508938599e-10)
(-88.322 0 -2.05629440481e-10)
(-88.322 0 5.75696024596e-10)
(-88.3219999996 0 -1.96006330081e-10)
(-88.3219999999 0 4.31086325265e-11)
(-88.3220000006 0 -1.03659922186e-10)
(-88.3219999997 0 -2.69764285454e-10)
(-88.3219999999 0 9.45625142501e-11)
(-88.3220000015 0 -8.9003655236e-11)
(-88.3219999989 0 6.52902843311e-12)
(-88.3219999982 0 -8.66920402911e-11)
(-88.3220000017 0 4.37048987139e-11)
(-88.3220000022 0 9.44501450581e-11)
(-88.3219999978 0 -7.46279448516e-11)
(-88.3219999978 0 3.64517521139e-10)
(-88.3220000023 0 -2.42830472422e-11)
(-88.3220000016 0 3.92977788821e-11)
(-88.3219999989 0 -7.30245967225e-11)
(-88.3219999998 0 -3.0997362283e-12)
(-88.3220000005 0 -8.57409047836e-11)
(-88.3220000002 0 1.96887897015e-10)
(-88.3219999997 0 4.25769786943e-10)
(-88.3220000005 0 3.33814709425e-10)
(-88.3220000013 0 3.49673708734e-10)
(-88.3219999978 0 2.71153147705e-10)
(-88.3219999989 0 5.18896750131e-10)
(-88.3220000017 0 1.98556664701e-10)
(-88.3219999998 0 -3.64527428689e-10)
(-88.3220000002 0 1.09680153358e-10)
(-88.3219999993 0 -1.98528311902e-10)
(-88.321999999 0 2.4198805296e-10)
(-88.3220000015 0 5.68995340346e-10)
(-88.3220000008 0 -5.40790021286e-10)
(-88.3220000001 0 -1.67044325843e-10)
(-88.3219999997 0 4.33370954139e-10)
(-88.3219999996 0 5.57235853102e-11)
(-88.3219999998 0 -4.68870801537e-10)
(-88.3219999995 0 -1.05126508499e-09)
(-88.3219999998 0 8.37085866845e-10)
(-88.3220000001 0 9.71910584235e-10)
(-88.322 0 7.51179302668e-10)
(-88.3220000005 0 -3.12214093441e-10)
(-88.3220000001 0 -1.22612294838e-10)
(-88.322 0 2.32815387937e-10)
(-88.3220000004 0 -3.88287498364e-11)
(-88.322 0 -5.73757900185e-11)
(-88.3219999996 0 -1.05581487947e-11)
(-88.322 0 2.08189235129e-13)
(-88.322 0 3.31901090837e-11)
(-88.322 0 1.85862108958e-11)
(-88.322 0 -6.49169097382e-12)
(-88.322 0 6.63175296315e-11)
(-88.3220000001 0 -2.63919267266e-10)
(-88.3219999997 0 -2.77981121887e-10)
(-88.3219999999 0 3.9027884686e-11)
(-88.3220000002 0 -2.61109129198e-11)
(-88.322 0 3.49851904634e-11)
(-88.3220000001 0 1.54427551944e-10)
(-88.3219999995 0 1.50647153841e-10)
(-88.3219999995 0 -2.3959840983e-11)
(-88.3220000015 0 -5.89287349454e-13)
(-88.3220000012 0 2.98853912247e-11)
(-88.3219999981 0 2.81908712424e-11)
(-88.3219999984 0 7.90626269989e-11)
(-88.3220000005 0 -1.2660366099e-10)
(-88.3220000001 0 1.31167976589e-10)
(-88.3220000001 0 3.77589537571e-12)
(-88.3219999999 0 2.55706682516e-10)
(-88.3220000005 0 2.85567817367e-10)
(-88.3220000013 0 3.64821043953e-10)
(-88.3219999994 0 -2.9679120869e-11)
(-88.3219999995 0 1.48165416357e-10)
(-88.3220000004 0 3.96136496738e-10)
(-88.322 0 -3.27492133137e-11)
(-88.322 0 -5.38083786116e-10)
(-88.3219999998 0 -7.56503778814e-10)
(-88.3220000002 0 1.97736361799e-10)
(-88.3219999997 0 8.68609578113e-10)
(-88.3219999999 0 -1.07768316154e-09)
(-88.3220000003 0 -2.83716940475e-10)
(-88.322 0 1.62274298248e-10)
(-88.322 0 3.89250326964e-10)
(-88.322 0 -1.60571010494e-10)
(-88.322 0 2.42288714246e-10)
(-88.322 0 7.1580526863e-11)
(-88.322 0 3.18643243652e-10)
(-88.322 0 -4.67645876395e-11)
(-88.3220000002 0 6.00838548273e-10)
(-88.3219999997 0 5.10844323446e-10)
(-88.3219999996 0 -4.35058890578e-10)
(-88.3220000004 0 -1.29834904956e-10)
(-88.3220000001 0 3.00109384675e-10)
(-88.3220000007 0 -2.74804543631e-12)
(-88.3219999993 0 3.5781511599e-10)
(-88.3219999985 0 -4.21591920453e-10)
(-88.3220000015 0 -7.27859436662e-11)
(-88.3220000018 0 -2.39258798483e-10)
(-88.3219999992 0 1.66850797738e-10)
(-88.3219999999 0 1.14846745933e-10)
(-88.3219999998 0 -3.01365385727e-10)
(-88.3220000001 0 7.82432178766e-10)
(-88.3219999993 0 6.57067350535e-10)
(-88.3219999986 0 3.96875244492e-10)
(-88.3220000002 0 1.63666046771e-10)
(-88.3220000004 0 -1.74706811207e-11)
(-88.3220000002 0 -1.116382831e-10)
(-88.321999999 0 -2.19622095757e-10)
(-88.322 0 4.13089816677e-10)
(-88.3220000005 0 6.24762565129e-10)
(-88.322 0 -5.09227380269e-12)
(-88.3219999999 0 4.30986729941e-10)
(-88.322 0 3.27099645298e-10)
(-88.322 0 -4.36488437815e-10)
(-88.322 0 1.81872604193e-11)
(-88.3219999998 0 9.32213778288e-11)
(-88.3220000003 0 -4.68506162521e-11)
(-88.3220000003 0 1.88582813963e-10)
(-88.3219999999 0 1.84818088416e-10)
(-88.3219999998 0 -5.30104889026e-10)
(-88.3219999998 0 5.03014420618e-10)
(-88.3219999997 0 4.08647690119e-10)
(-88.3219999997 0 5.35994934781e-10)
(-88.3220000003 0 1.17266178034e-10)
(-88.3220000003 0 -6.99856743002e-10)
(-88.322 0 -2.51515124074e-10)
(-88.3219999998 0 9.01344756693e-10)
(-88.3219999998 0 1.09333143971e-09)
(-88.3220000004 0 -6.36381726236e-10)
(-88.3219999999 0 -6.23880842938e-10)
(-88.3219999998 0 -4.54029304911e-10)
(-88.3219999998 0 -8.00629952705e-11)
(-88.3219999991 0 1.16095919734e-10)
(-88.3219999996 0 -4.57675011102e-10)
(-88.3220000013 0 5.29428513088e-10)
(-88.3220000001 0 7.27219393811e-10)
(-88.3219999991 0 -1.21265602671e-10)
(-88.322000002 0 -3.63124191821e-10)
(-88.3220000007 0 9.6716300164e-11)
(-88.3219999995 0 1.69649396652e-10)
(-88.3220000002 0 1.19823471263e-10)
(-88.3219999989 0 -1.25193156417e-10)
(-88.3220000003 0 -6.67210421159e-12)
(-88.322 0 -5.90305060277e-11)
(-88.3219999999 0 4.43450260628e-12)
(-88.3220000003 0 5.88775767163e-11)
(-88.3219999996 0 4.67963281415e-11)
(-88.322 0 -2.33296311531e-11)
(-88.322 0 1.67503725488e-11)
(-88.322 0 9.73582228505e-12)
(-88.322 0 8.39091660617e-12)
(-88.322 0 1.14102855416e-11)
(-88.3220000002 0 -8.01232390297e-11)
(-88.3219999998 0 2.97382653073e-10)
(-88.3220000001 0 -2.11948879923e-10)
(-88.3220000002 0 -7.56853321605e-11)
(-88.3219999995 0 -1.8747883985e-11)
(-88.3220000002 0 1.06539373831e-10)
(-88.3220000001 0 2.79873499568e-10)
(-88.3219999998 0 -4.25269495775e-10)
(-88.3220000012 0 -4.68753078342e-10)
(-88.3220000002 0 3.02154985337e-10)
(-88.3219999994 0 3.52735903326e-10)
(-88.3220000007 0 4.79957459181e-11)
(-88.3219999983 0 4.05793863646e-10)
(-88.3219999979 0 -9.05234313937e-11)
(-88.3220000002 0 4.73025986334e-10)
(-88.3220000007 0 -2.55575526599e-10)
(-88.3220000009 0 -7.75258919123e-11)
(-88.3220000009 0 -2.53133402001e-10)
(-88.3220000004 0 4.87788746161e-10)
(-88.321999999 0 2.15662483091e-11)
(-88.3219999984 0 -2.87332809236e-10)
(-88.3220000013 0 5.016444533e-11)
(-88.3220000004 0 3.02834992687e-11)
(-88.3219999989 0 5.13799286047e-11)
(-88.3220000018 0 -8.8935165462e-11)
(-88.3220000006 0 6.20251328709e-11)
(-88.321999999 0 -1.74286373825e-10)
(-88.3220000002 0 -1.69973357179e-10)
(-88.3219999998 0 4.07570040305e-10)
(-88.3219999997 0 -3.79265212207e-10)
(-88.3220000012 0 -3.30070512867e-10)
(-88.3219999993 0 -6.02391667593e-11)
(-88.3219999984 0 -1.21334507027e-10)
(-88.3219999999 0 9.57924556921e-12)
(-88.3220000008 0 -2.53616935585e-10)
(-88.322000002 0 -1.25196768818e-10)
(-88.322 0 3.71229093786e-11)
(-88.3219999982 0 -2.3807516232e-12)
(-88.3219999985 0 -1.26149601236e-12)
(-88.3220000012 0 -3.37378835066e-11)
(-88.3220000019 0 1.71405297535e-12)
(-88.322 0 -1.34933185126e-11)
(-88.321999999 0 -7.72554441553e-11)
(-88.321999999 0 4.77321052758e-11)
(-88.3220000007 0 -3.26727192256e-10)
(-88.3219999996 0 -3.53802762512e-10)
(-88.3219999989 0 -5.84328009018e-10)
(-88.3220000008 0 3.05349792237e-10)
(-88.3220000018 0 -4.50940639147e-10)
(-88.322 0 -3.76135612954e-10)
(-88.321999999 0 8.13030205625e-10)
(-88.3219999999 0 1.99960510736e-10)
(-88.3220000005 0 -1.20900994235e-10)
(-88.3220000004 0 -4.59846113039e-10)
(-88.3219999996 0 -1.40566847029e-10)
(-88.3219999999 0 6.24676010149e-10)
(-88.322 0 -1.76001927145e-10)
(-88.3219999999 0 -8.46838615884e-11)
(-88.3220000001 0 4.96993180277e-11)
(-88.322 0 8.65547723408e-11)
(-88.322 0 -1.98641087583e-10)
(-88.322 0 6.54220451997e-11)
(-88.322 0 3.59701624401e-11)
(-88.3220000001 0 1.02270663135e-11)
(-88.3219999996 0 -9.99710961135e-12)
(-88.322 0 -3.93492134676e-11)
(-88.3220000004 0 3.16632012789e-11)
(-88.3219999999 0 -3.82042517614e-11)
(-88.3219999998 0 1.19076909577e-10)
(-88.3220000002 0 -4.32262495836e-11)
(-88.3220000003 0 6.33444864877e-11)
(-88.3219999998 0 -6.82636644446e-11)
(-88.322 0 4.71517259001e-11)
(-88.3220000002 0 3.22925656086e-10)
(-88.3219999998 0 1.67700042476e-11)
(-88.3219999998 0 9.56527516215e-11)
(-88.3220000001 0 4.77585503088e-10)
(-88.3219999999 0 -5.16284055366e-10)
(-88.3219999997 0 -4.77290863788e-10)
(-88.3219999997 0 4.85125353278e-11)
(-88.3220000002 0 2.55963979368e-10)
(-88.3220000005 0 -9.96055120144e-11)
(-88.322 0 9.46193131549e-11)
(-88.3220000005 0 2.11991489245e-10)
(-88.3219999998 0 -3.8721981133e-10)
(-88.3219999999 0 -6.51948196615e-10)
(-88.322 0 1.91478706639e-10)
(-88.3220000002 0 -4.38915387166e-10)
(-88.3219999999 0 -3.54570212253e-10)
(-88.3220000001 0 4.3074029711e-10)
(-88.3220000005 0 -3.32386721722e-11)
(-88.3219999986 0 -1.20496855455e-10)
(-88.3220000008 0 7.96109921504e-11)
(-88.3220000019 0 -1.77821078778e-10)
(-88.3219999992 0 -1.06588026216e-10)
(-88.3219999993 0 3.82807544782e-10)
(-88.3219999996 0 -5.0083489106e-10)
(-88.3219999999 0 -3.58988612288e-10)
(-88.322 0 -5.20434621038e-10)
(-88.3219999998 0 4.67013728305e-12)
(-88.3220000001 0 4.62089807863e-10)
(-88.322 0 2.70134970075e-11)
(-88.3219999999 0 -3.83118501003e-10)
(-88.3219999998 0 -7.12137033273e-10)
(-88.3220000004 0 2.03751068747e-10)
(-88.322 0 1.97554343959e-10)
(-88.3219999997 0 2.38000827459e-10)
(-88.3220000003 0 -2.73118909985e-10)
(-88.3219999998 0 -2.95854669669e-10)
(-88.3220000002 0 6.57554977459e-11)
(-88.322 0 -5.01908207703e-10)
(-88.322 0 -4.75267339507e-10)
(-88.3220000003 0 -9.54908786739e-11)
(-88.3219999994 0 4.14991871463e-10)
(-88.3219999997 0 -8.12995028495e-11)
(-88.3220000014 0 -9.50135875231e-11)
(-88.3220000016 0 -1.15484877149e-10)
(-88.321999999 0 -5.18117843811e-11)
(-88.321999998 0 2.28275505043e-10)
(-88.3220000001 0 -4.93859276648e-11)
(-88.3220000013 0 8.70970921708e-11)
(-88.3219999999 0 -3.54086514643e-11)
(-88.3219999993 0 -2.40341845021e-11)
(-88.3220000005 0 4.16805179799e-11)
(-88.322 0 -8.37821556887e-12)
(-88.3219999995 0 -1.23987617102e-11)
(-88.3220000001 0 -4.21710754911e-11)
(-88.322 0 -2.3550686186e-11)
(-88.3220000002 0 4.69105762213e-11)
(-88.3219999998 0 -1.94867931878e-10)
(-88.3220000001 0 5.27511451277e-11)
(-88.322 0 1.18456197226e-10)
(-88.3219999995 0 -1.63736375538e-10)
(-88.3220000002 0 -1.89930061854e-10)
(-88.322 0 1.17348085757e-10)
(-88.3219999998 0 5.89773049965e-10)
(-88.3220000005 0 5.83830038327e-10)
(-88.3220000003 0 -2.8459868666e-10)
(-88.3219999999 0 -3.60374801395e-10)
(-88.3219999998 0 -2.3476364384e-10)
(-88.3219999996 0 -4.64841720321e-10)
(-88.3219999998 0 1.70268504968e-10)
(-88.3219999991 0 -4.35960841124e-10)
(-88.3219999993 0 3.55073958683e-10)
(-88.3220000012 0 -1.82359188449e-10)
(-88.3220000004 0 1.46307196422e-10)
(-88.3220000003 0 -2.95129035151e-10)
(-88.3220000001 0 1.84361795223e-11)
(-88.322 0 -4.72035069435e-11)
(-88.322 0 2.78652586917e-12)
(-88.322 0 -7.5353127314e-11)
(-88.322 0 9.03327736568e-11)
(-88.322 0 4.18535092863e-11)
(-88.322 0 -9.6454679276e-11)
(-88.3220000001 0 1.6879668734e-10)
(-88.322 0 1.59484344592e-10)
(-88.322 0 -4.76374818282e-10)
(-88.322 0 5.58768883579e-10)
(-88.322 0 5.39542448982e-10)
(-88.322 0 7.59469715902e-11)
(-88.322 0 1.21243074916e-10)
(-88.322 0 -3.75371272395e-11)
(-88.322 0 8.88684035537e-11)
(-88.322 0 -1.42480033254e-11)
(-88.322 0 1.33211835647e-12)
(-88.322 0 1.1920342454e-11)
(-88.322 0 -2.49225595861e-11)
(-88.322 0 1.48482945206e-11)
(-88.322 0 -1.55332537148e-11)
(-88.322 0 1.65146057815e-10)
(-88.322 0 -6.53199707547e-11)
(-88.322 0 -4.44328238497e-11)
(-88.322 0 8.54411954574e-11)
(-88.322 0 -2.60311577149e-11)
(-88.322 0 4.39002194226e-11)
(-88.322 0 -2.00053677395e-10)
(-88.322 0 4.80239529647e-11)
(-88.322 0 -9.35219030527e-11)
(-88.322 0 -2.48947742738e-11)
(-88.322 0 2.00220154505e-10)
(-88.3220000003 0 -1.71253704183e-10)
(-88.3219999999 0 1.66952006791e-10)
(-88.3219999997 0 -1.9830641246e-10)
(-88.3220000001 0 -7.38064776064e-10)
(-88.322 0 1.73342939803e-10)
(-88.322 0 3.14850074128e-10)
(-88.322 0 -2.97741855186e-11)
(-88.322 0 -8.64130735502e-11)
(-88.322 0 2.03489620707e-10)
(-88.322 0 -9.38391933711e-11)
(-88.322 0 -3.38634666466e-11)
(-88.322 0 -2.61058523966e-11)
(-88.322 0 -6.31759255503e-11)
(-88.322 0 1.49685038763e-10)
(-88.3219999998 0 -1.36498014156e-11)
(-88.3220000003 0 2.05781170081e-10)
(-88.3220000004 0 -5.52862931914e-11)
(-88.3219999996 0 -7.89153215576e-11)
(-88.3219999988 0 -1.75560509618e-10)
(-88.3219999989 0 6.86448342593e-11)
(-88.3220000018 0 1.32642572466e-10)
(-88.3220000021 0 -2.41986428693e-10)
(-88.3219999996 0 -1.06849688887e-10)
(-88.322 0 -4.59300276505e-11)
(-88.3219999993 0 -1.15336114836e-10)
(-88.3219999998 0 5.48314417219e-11)
(-88.3219999993 0 5.87254165376e-11)
(-88.3219999992 0 -1.02388944898e-09)
(-88.3220000006 0 -8.6978415491e-10)
(-88.322 0 -2.38578141438e-10)
(-88.3219999996 0 1.39741434859e-10)
(-88.3220000001 0 1.23108930416e-10)
(-88.3219999999 0 -1.66804682813e-10)
(-88.322 0 -5.39273363061e-11)
(-88.3219999997 0 7.59026733576e-11)
(-88.3219999999 0 5.98059608065e-11)
(-88.3220000003 0 -1.35154668478e-10)
(-88.322 0 -1.49741964356e-10)
(-88.322 0 -3.44050002187e-11)
(-88.322 0 -7.24708597816e-11)
(-88.322 0 1.11852481261e-11)
(-88.3219999999 0 -2.99320569817e-11)
(-88.3220000002 0 -1.09398582443e-11)
(-88.3220000001 0 -2.35475338152e-11)
(-88.3219999998 0 -3.27436967125e-11)
(-88.322 0 -4.2020072869e-11)
(-88.322 0 -3.79141746581e-11)
(-88.322 0 -4.65780236937e-12)
(-88.322 0 5.09378631403e-11)
(-88.322 0 -1.69914093607e-10)
(-88.3219999999 0 -7.23568953983e-11)
(-88.3219999998 0 5.1170738387e-10)
(-88.322 0 3.54232756435e-10)
(-88.3220000001 0 -4.69524187625e-10)
(-88.3220000001 0 -3.5307118141e-10)
(-88.322 0 -1.10614819419e-10)
(-88.3219999998 0 7.0927931362e-11)
(-88.3220000002 0 -1.71307301355e-10)
(-88.3220000003 0 1.3114989567e-10)
(-88.322 0 -1.50962812739e-10)
(-88.3220000001 0 -4.05964134384e-10)
(-88.3219999996 0 -3.18349603266e-10)
(-88.321999999 0 2.64248391725e-10)
(-88.3220000016 0 -4.28764517661e-10)
(-88.3220000016 0 -4.66628102991e-10)
(-88.3219999991 0 -4.13165235886e-10)
(-88.3219999999 0 4.48382397913e-10)
(-88.3219999994 0 3.36699713432e-10)
(-88.3219999991 0 -3.73514351686e-10)
(-88.3220000003 0 -2.44057136535e-10)
(-88.322 0 5.30499380814e-10)
(-88.322 0 1.19348066716e-10)
(-88.322 0 -3.53015319936e-10)
(-88.322 0 -5.67115692402e-10)
(-88.322 0 2.39339966148e-10)
(-88.3220000001 0 -2.40795841167e-10)
(-88.3219999999 0 -9.08288551092e-11)
(-88.3219999997 0 -5.14883810817e-10)
(-88.322 0 4.2383170638e-10)
(-88.3220000001 0 -1.29404501626e-10)
(-88.322 0 6.62247383171e-11)
(-88.3220000006 0 2.89891801161e-10)
(-88.3219999998 0 -4.09454581754e-10)
(-88.3219999993 0 -9.55280833107e-10)
(-88.3220000011 0 -1.14536405405e-09)
(-88.3220000007 0 -4.25172339673e-10)
(-88.3219999995 0 1.00693055165e-09)
(-88.3219999998 0 5.80687286004e-10)
(-88.3219999993 0 -7.59601715193e-11)
(-88.3219999994 0 -7.08634838894e-10)
(-88.3220000013 0 7.54718489901e-10)
(-88.3220000011 0 -3.29148659632e-11)
(-88.3219999996 0 -1.82761061892e-10)
(-88.3219999994 0 -3.19135255933e-11)
(-88.322 0 1.07888693766e-10)
(-88.3220000007 0 5.28178963095e-11)
(-88.3220000004 0 2.5329720416e-10)
(-88.3219999996 0 -2.29589703763e-10)
(-88.3219999998 0 1.86390813524e-10)
(-88.3220000005 0 -2.6856810991e-10)
(-88.3220000004 0 2.28326037731e-10)
(-88.3219999998 0 2.66156359159e-10)
(-88.322 0 -2.23079627849e-10)
(-88.3219999998 0 -4.17519174733e-10)
(-88.322 0 -1.35723839446e-10)
(-88.322 0 -4.68390527481e-10)
(-88.322 0 -4.48918170424e-10)
(-88.322 0 -1.48609163582e-10)
(-88.322 0 7.46133662505e-11)
(-88.322 0 3.88828795852e-11)
(-88.322 0 1.02802885065e-10)
(-88.3219999999 0 -3.56799267304e-10)
(-88.3220000004 0 -7.21714808791e-10)
(-88.3220000002 0 3.29076492626e-10)
(-88.3219999986 0 3.22386707775e-10)
(-88.3219999991 0 7.70396841494e-10)
(-88.322000002 0 -4.76882476147e-10)
(-88.3220000014 0 -4.56752486873e-10)
(-88.3219999993 0 3.06262830562e-10)
(-88.3219999992 0 2.94254126315e-10)
(-88.3220000001 0 2.91002601396e-10)
(-88.322 0 1.03916822803e-10)
(-88.3220000001 0 3.2534744668e-10)
(-88.322000001 0 1.03758245722e-10)
(-88.3220000002 0 3.99515014529e-11)
(-88.3219999986 0 9.65540387978e-11)
(-88.3220000002 0 -1.39107920228e-10)
(-88.3220000014 0 -3.91006039937e-10)
(-88.3220000004 0 5.42281946636e-10)
(-88.321999998 0 7.97510269557e-10)
(-88.3219999981 0 5.03873458574e-10)
(-88.3220000016 0 7.43510880567e-10)
(-88.3220000011 0 -5.09209665481e-10)
(-88.3219999983 0 -4.15526174682e-11)
(-88.3219999993 0 2.80935656262e-11)
(-88.3220000018 0 -6.48198144242e-11)
(-88.3220000013 0 5.87489971212e-11)
(-88.3219999988 0 -9.93892087714e-11)
(-88.3219999994 0 4.66450483155e-11)
(-88.3220000006 0 -1.19328006227e-10)
(-88.3220000005 0 -2.99859879452e-10)
(-88.3219999989 0 2.40058095054e-10)
(-88.321999999 0 3.37344980909e-10)
(-88.3220000011 0 4.41476464519e-10)
(-88.3219999995 0 -3.4142999257e-10)
(-88.3220000004 0 -3.45240066072e-10)
(-88.3220000011 0 7.14705988823e-10)
(-88.3220000003 0 1.06230914893e-10)
(-88.3220000009 0 1.14937891148e-10)
(-88.321999998 0 3.52734070544e-10)
(-88.3219999976 0 5.50307124346e-10)
(-88.3220000021 0 6.55386390678e-10)
(-88.3220000017 0 -2.43393103881e-10)
(-88.3219999981 0 -3.95034255009e-10)
(-88.3219999979 0 -1.90421717077e-10)
(-88.3220000011 0 4.44258270771e-10)
(-88.3220000006 0 4.08178230305e-10)
(-88.3219999993 0 2.9759537244e-10)
(-88.322 0 -1.9072162343e-10)
(-88.3219999998 0 -2.15777513571e-10)
(-88.3220000004 0 1.36915205984e-10)
(-88.322 0 -2.58253024121e-11)
(-88.3219999999 0 -6.83729208786e-11)
(-88.3219999999 0 -1.16242061032e-10)
(-88.3219999992 0 1.31075756714e-10)
(-88.3220000008 0 1.06396518143e-10)
(-88.3220000014 0 3.96249737342e-11)
(-88.3219999998 0 -3.65621807087e-11)
(-88.322 0 -3.2434951594e-10)
(-88.3220000005 0 -2.76032117364e-11)
(-88.3219999996 0 -8.69140190555e-11)
(-88.321999999 0 -1.08281659635e-10)
(-88.3219999995 0 7.84549001344e-11)
(-88.322 0 -1.10872554564e-10)
(-88.3220000008 0 -1.08332673334e-11)
(-88.3220000017 0 -9.36875222973e-13)
(-88.3219999988 0 -6.91800608306e-11)
(-88.3219999979 0 1.94466349279e-10)
(-88.321999999 0 2.24169003312e-12)
(-88.3220000015 0 -3.59453675605e-10)
(-88.3220000025 0 -2.31642365503e-10)
(-88.3219999986 0 3.29169456698e-10)
(-88.3219999985 0 4.6593293214e-10)
(-88.322 0 1.12020965323e-10)
(-88.3220000001 0 -4.78717579707e-11)
(-88.3220000001 0 1.75453350374e-10)
(-88.3220000003 0 -9.48322195035e-11)
(-88.3220000005 0 1.62374377503e-10)
(-88.3220000001 0 4.09179179613e-10)
(-88.322 0 3.16775175791e-10)
(-88.3219999999 0 -2.56964061308e-10)
(-88.3220000003 0 5.26043191663e-10)
(-88.3219999994 0 2.75058290753e-10)
(-88.321999999 0 6.330471621e-10)
(-88.3220000001 0 -5.06885194146e-10)
(-88.3220000014 0 -3.36874551447e-10)
(-88.3220000006 0 5.21608711357e-10)
(-88.3219999993 0 2.08420029373e-10)
(-88.322 0 -5.38060822137e-10)
(-88.322 0 -1.11883196316e-10)
(-88.3220000002 0 3.36452351506e-10)
(-88.322 0 5.92944733678e-10)
(-88.322 0 -4.01769888777e-10)
(-88.3220000008 0 2.32643212243e-10)
(-88.3219999992 0 6.1187074129e-11)
(-88.3219999984 0 5.2554066705e-10)
(-88.3219999996 0 -4.50836976755e-10)
(-88.3220000016 0 2.5866894943e-11)
(-88.3220000016 0 1.50206585804e-10)
(-88.3219999984 0 -5.55555914651e-10)
(-88.3219999989 0 1.14989794705e-10)
(-88.3220000004 0 7.66311839712e-10)
(-88.3220000006 0 7.38456703856e-10)
(-88.3219999999 0 4.59562473539e-10)
(-88.321999999 0 -4.31896540713e-10)
(-88.3220000013 0 -5.98931265385e-10)
(-88.3220000013 0 5.06333204645e-10)
(-88.3219999994 0 4.89669262023e-10)
(-88.3219999997 0 -4.00508299423e-10)
(-88.322 0 -5.17686503995e-10)
(-88.3219999999 0 1.3236609115e-10)
(-88.322 0 -1.73964604216e-10)
(-88.322 0 -4.016371613e-11)
(-88.322 0 1.21378906696e-10)
(-88.322 0 -2.13643361985e-10)
(-88.322 0 1.82473405289e-10)
(-88.322 0 -1.14249106147e-10)
(-88.322 0 1.52524830118e-10)
(-88.322 0 -2.23239019041e-10)
(-88.322 0 -1.36946490501e-10)
(-88.3220000002 0 -2.12347056751e-10)
(-88.3220000005 0 1.71985813819e-11)
(-88.3219999999 0 3.56458943375e-10)
(-88.3219999995 0 1.78261474715e-10)
(-88.3220000002 0 -1.3707640107e-10)
(-88.3219999997 0 -2.82510003096e-10)
(-88.322 0 1.39341751009e-10)
(-88.3220000001 0 1.92742710754e-10)
(-88.3219999997 0 -2.28819318258e-10)
(-88.322 0 4.00049620545e-10)
(-88.322 0 7.16964568246e-10)
(-88.3220000001 0 -3.07896111542e-10)
(-88.3219999997 0 -3.32878882236e-10)
(-88.3219999997 0 -7.93209353529e-10)
(-88.3220000005 0 3.92828201764e-10)
(-88.322 0 4.18792605662e-10)
(-88.3219999998 0 -3.32142172485e-10)
(-88.3220000002 0 -3.00065838543e-10)
(-88.322 0 -3.35631259524e-10)
(-88.322 0 -2.16805137306e-10)
(-88.322 0 -2.27256606365e-10)
(-88.322 0 -1.11526412256e-10)
(-88.322 0 1.14227984736e-10)
(-88.322 0 1.21856829695e-10)
(-88.3219999997 0 -1.49496634224e-10)
(-88.3220000003 0 3.50058157112e-10)
(-88.3220000003 0 -3.05590015832e-10)
(-88.3219999996 0 -6.96347955574e-10)
(-88.322 0 -5.50488019169e-10)
(-88.3219999997 0 -1.34091791675e-10)
(-88.3220000002 0 -6.0830125609e-11)
(-88.3220000005 0 -4.66347115845e-10)
(-88.3219999999 0 2.33942768181e-10)
(-88.322 0 3.53647254434e-10)
(-88.322 0 -3.77814165203e-10)
(-88.3220000003 0 5.90686132797e-11)
(-88.3220000001 0 -5.14174672219e-10)
(-88.3219999997 0 -4.51188527534e-10)
(-88.322 0 1.38315980662e-10)
(-88.3219999999 0 -7.91404960127e-10)
(-88.322 0 -4.75043876019e-10)
(-88.3219999999 0 -4.79295122588e-10)
(-88.3220000007 0 2.24058115268e-10)
(-88.3220000006 0 2.9383581711e-10)
(-88.3219999986 0 -5.6362006322e-10)
(-88.3219999991 0 -1.15835413208e-10)
(-88.3220000014 0 -4.8782479413e-10)
(-88.3220000003 0 2.66356924723e-10)
(-88.3219999998 0 -4.55086999244e-10)
(-88.3220000003 0 -8.86833371299e-10)
(-88.3219999997 0 -1.97294946907e-10)