/*--------------------------------*- C++ -*----------------------------------*\
  =========                 |
  \\      /  F ield         | OpenFOAM: The Open Source CFD Toolbox
   \\    /   O peration     | Website:  https://openfoam.org
    \\  /    A nd           | Version:  6
     \\/     M anipulation  |
\*---------------------------------------------------------------------------*/
FoamFile
{
    version     2.0;
    format      ascii;
    class       volVectorField;
    location    "4.45e-05";
    object      U;
}
// * * * * * * * * * * * * * * * * * * * * * * * * * * * * * * * * * * * * * //

dimensions      [0 1 -1 0 0 0 0];

internalField   nonuniform List<vector> 
8192
(
(-88.3220000001 0 -2.73905820453e-10)
(-88.3219999996 0 -5.27651197408e-11)
(-88.3220000001 0 -6.69643327383e-11)
(-88.3220000002 0 -1.95255576557e-10)
(-88.3219999996 0 -5.92073092166e-11)
(-88.3219999998 0 2.37643454458e-11)
(-88.3220000002 0 -2.83411253388e-12)
(-88.322 0 5.58677404514e-11)
(-88.322 0 -2.11782530595e-10)
(-88.322 0 -5.28929050237e-10)
(-88.3219999999 0 -6.07391824052e-10)
(-88.322 0 3.18986595181e-10)
(-88.3220000001 0 6.06540624586e-10)
(-88.322 0 -6.34474845504e-10)
(-88.3219999999 0 -5.84780012326e-10)
(-88.3219999999 0 3.03125637936e-10)
(-88.3219999999 0 1.94220077446e-10)
(-88.3219999999 0 5.15964061981e-10)
(-88.3220000001 0 -4.00153933698e-10)
(-88.322 0 -4.65737560056e-10)
(-88.3219999998 0 2.53432575626e-10)
(-88.3220000002 0 3.41463085876e-10)
(-88.3220000002 0 -4.70181976041e-10)
(-88.3219999999 0 -4.9801785705e-10)
(-88.322 0 1.34244722774e-10)
(-88.3219999999 0 1.29213535163e-10)
(-88.3219999999 0 1.71611942106e-10)
(-88.3219999999 0 1.39155413926e-10)
(-88.3220000002 0 2.34399250411e-10)
(-88.3220000001 0 -1.15174346993e-10)
(-88.3219999999 0 1.74035142713e-10)
(-88.3219999998 0 -1.28381410447e-11)
(-88.3219999992 0 9.62734112792e-11)
(-88.3220000015 0 4.53647118869e-10)
(-88.3220000021 0 -6.63233596813e-10)
(-88.321999999 0 -5.51350881142e-10)
(-88.3219999998 0 -2.70581694559e-11)
(-88.3219999996 0 -4.9697098816e-10)
(-88.3219999988 0 1.73064979031e-10)
(-88.3220000005 0 1.31367882923e-10)
(-88.3220000001 0 -2.0804230861e-11)
(-88.3219999999 0 3.36326703348e-11)
(-88.3220000001 0 -1.25222916972e-11)
(-88.322 0 -1.36545759842e-11)
(-88.322 0 -4.92855407196e-11)
(-88.322 0 -2.82514935463e-11)
(-88.322 0 -1.55924409758e-11)
(-88.322 0 -1.26710632327e-11)
(-88.322 0 1.06932171812e-11)
(-88.3219999999 0 -6.17400706549e-11)
(-88.3219999999 0 7.40527779704e-11)
(-88.3220000004 0 -2.84803867867e-11)
(-88.3219999996 0 -1.67813321188e-10)
(-88.3219999995 0 2.67344181702e-10)
(-88.322000001 0 1.53132997629e-10)
(-88.3220000005 0 -2.15470681347e-10)
(-88.3219999999 0 -4.27898303837e-11)
(-88.3219999998 0 -1.42203652526e-10)
(-88.3220000001 0 -3.48081776307e-11)
(-88.3219999993 0 -2.40921744888e-10)
(-88.3219999987 0 2.90964569984e-10)
(-88.3219999998 0 3.57100189043e-10)
(-88.3220000007 0 3.37922393281e-10)
(-88.3220000013 0 3.10720400275e-11)
(-88.322 0 -2.34568041917e-10)
(-88.3219999999 0 -6.91230163019e-11)
(-88.3220000001 0 7.97253237865e-11)
(-88.3219999998 0 4.84817518664e-12)
(-88.322 0 1.62871664124e-10)
(-88.3220000001 0 -9.87751317176e-11)
(-88.3219999997 0 2.81474851668e-11)
(-88.3220000004 0 4.30206539831e-12)
(-88.3220000011 0 -8.18953862582e-13)
(-88.3220000007 0 -4.34434435221e-11)
(-88.3219999984 0 4.65219796749e-11)
(-88.3219999976 0 -1.76263256625e-10)
(-88.3220000017 0 -1.8200564135e-11)
(-88.3220000022 0 -1.48638122916e-10)
(-88.3219999983 0 -2.49491157547e-10)
(-88.3219999986 0 2.38394538536e-10)
(-88.3219999997 0 1.52247337374e-10)
(-88.3220000013 0 1.3446721125e-10)
(-88.3220000019 0 -2.75007675828e-10)
(-88.3219999988 0 -1.64508911302e-10)
(-88.3219999987 0 -2.7552649035e-11)
(-88.3220000012 0 3.28055840294e-11)
(-88.3220000014 0 1.63439594917e-10)
(-88.321999999 0 -6.0673721934e-11)
(-88.3219999988 0 3.78771489246e-10)
(-88.322 0 -2.15063511579e-10)
(-88.3220000001 0 2.9595881138e-10)
(-88.3219999999 0 2.53304031599e-10)
(-88.3220000003 0 -1.81739202888e-11)
(-88.322 0 4.20750955794e-11)
(-88.3219999999 0 4.44005048515e-11)
(-88.3220000003 0 2.16209102596e-12)
(-88.3219999999 0 -1.71780012244e-10)
(-88.3220000002 0 -3.92827383607e-10)
(-88.322 0 4.46701076447e-10)
(-88.3219999997 0 5.41069063303e-10)
(-88.3220000001 0 -5.4039991546e-12)
(-88.322 0 2.81780847481e-10)
(-88.322 0 -1.74945700411e-10)
(-88.322 0 -1.56869035492e-10)
(-88.322 0 8.03516562436e-11)
(-88.322 0 -5.0216539992e-11)
(-88.322 0 3.32411238175e-11)
(-88.322 0 -1.39260562455e-10)
(-88.322 0 -3.70022671484e-10)
(-88.322 0 -2.94936116624e-10)
(-88.322 0 -2.92149563373e-10)
(-88.322 0 -3.19053172663e-10)
(-88.322 0 -3.2601285378e-10)
(-88.322 0 -1.0639363479e-10)
(-88.322 0 2.74223940784e-10)
(-88.3220000001 0 -6.25360970472e-11)
(-88.3219999999 0 4.29321984722e-11)
(-88.322 0 -7.66134178753e-11)
(-88.3220000001 0 -2.40165251382e-10)
(-88.322 0 3.9472444609e-10)
(-88.322 0 -1.35371301987e-10)
(-88.3220000001 0 -1.9296784123e-10)
(-88.322 0 -3.824565295e-10)
(-88.3219999999 0 7.16893652989e-10)
(-88.322 0 2.64127895549e-10)
(-88.3220000001 0 -7.57338130288e-10)
(-88.3220000001 0 -9.58563898389e-10)
(-88.322 0 -3.99740126149e-10)
(-88.3219999995 0 4.98452710065e-11)
(-88.3219999991 0 6.2097835185e-11)
(-88.322 0 -1.8914380384e-11)
(-88.322 0 1.41479448565e-10)
(-88.3219999999 0 -9.89924192807e-11)
(-88.322 0 9.96800030666e-11)
(-88.322 0 -2.39884944162e-11)
(-88.322 0 -5.52268907353e-11)
(-88.3220000001 0 1.84973217293e-10)
(-88.3219999999 0 4.95820699264e-10)
(-88.3220000002 0 5.66629593205e-10)
(-88.3220000001 0 -2.54940390426e-10)
(-88.322 0 -5.45296448888e-10)
(-88.3220000004 0 4.97925630964e-10)
(-88.3219999991 0 5.27416715019e-10)
(-88.3219999991 0 -3.15226857328e-10)
(-88.3220000001 0 -2.00458111164e-10)
(-88.3220000007 0 -4.74913857617e-10)
(-88.3220000007 0 4.20589377176e-10)
(-88.3219999995 0 4.37864312699e-10)
(-88.3219999994 0 -2.30869473306e-10)
(-88.3219999998 0 -2.23624910166e-10)
(-88.3220000004 0 4.59152810632e-10)
(-88.3219999995 0 4.90579703138e-10)
(-88.3220000003 0 -7.17870802565e-11)
(-88.322 0 -1.18992732472e-10)
(-88.321999999 0 -7.65149466102e-11)
(-88.3220000006 0 5.85126942759e-11)
(-88.3220000006 0 -1.69837955226e-11)
(-88.322 0 1.21305051436e-11)
(-88.322 0 8.91292667938e-11)
(-88.3220000003 0 -1.68053850029e-11)
(-88.322 0 -4.02183658087e-10)
(-88.322 0 3.74208970391e-10)
(-88.3220000001 0 5.26828944105e-10)
(-88.322 0 -2.99968151466e-10)
(-88.3220000003 0 -5.79388710069e-10)
(-88.322 0 7.23347743505e-10)
(-88.3219999997 0 3.58665407722e-10)
(-88.322 0 -3.5289731963e-10)
(-88.322 0 -3.84776119748e-10)
(-88.322 0 1.34296059407e-10)
(-88.3220000003 0 -2.42801327813e-10)
(-88.3220000009 0 -5.52554362415e-11)
(-88.3220000003 0 -2.81946867006e-10)
(-88.3219999998 0 5.06806707343e-11)
(-88.322 0 -4.93165490308e-10)
(-88.3219999999 0 -5.67091931719e-10)
(-88.3219999996 0 4.04673430437e-10)
(-88.3219999988 0 1.38909389563e-11)
(-88.3219999999 0 -3.06820885146e-10)
(-88.3220000008 0 1.46666176246e-10)
(-88.3219999996 0 -3.94029477728e-10)
(-88.322 0 3.56733338983e-10)
(-88.322 0 3.25443185332e-11)
(-88.3220000003 0 -3.10531539941e-10)
(-88.3220000011 0 -3.12385869743e-10)
(-88.3220000004 0 -3.28404324706e-10)
(-88.3219999984 0 -1.54226662787e-10)
(-88.3219999981 0 -1.48179545381e-10)
(-88.3220000017 0 -1.3632291371e-10)
(-88.3220000023 0 7.28532292133e-11)
(-88.3219999999 0 4.14279303e-11)
(-88.3219999999 0 5.57478771933e-11)
(-88.322 0 5.47414402681e-10)
(-88.322 0 1.58200788101e-10)
(-88.322 0 -7.0529540092e-12)
(-88.322 0 1.30003245899e-10)
(-88.322 0 -1.43411413799e-10)
(-88.322 0 2.80139063982e-11)
(-88.322 0 8.77238009137e-12)
(-88.322 0 3.0794394944e-11)
(-88.322 0 1.37272967408e-11)
(-88.322 0 7.71644923981e-11)
(-88.3219999999 0 -1.53392459137e-11)
(-88.3219999998 0 1.34704493437e-10)
(-88.3220000003 0 -1.49692932583e-12)
(-88.3220000001 0 2.82974125746e-10)
(-88.3219999999 0 2.85543489952e-10)
(-88.322 0 -2.26891201978e-10)
(-88.322 0 -1.45971490264e-10)
(-88.322 0 -2.28560443715e-10)
(-88.322 0 3.86775022568e-10)
(-88.322 0 3.78840339687e-10)
(-88.322 0 -4.29854550476e-10)
(-88.3219999999 0 -5.09979407093e-10)
(-88.322 0 2.90139206652e-10)
(-88.322 0 4.28813937773e-10)
(-88.322 0 -1.68552676326e-10)
(-88.322 0 5.13695388323e-10)
(-88.3219999997 0 -1.89699650015e-10)
(-88.3219999998 0 1.28061195751e-11)
(-88.3220000004 0 -1.06665880232e-10)
(-88.3219999998 0 -2.03290784326e-10)
(-88.3219999999 0 5.44449433073e-11)
(-88.3220000012 0 -6.98792796525e-11)
(-88.3219999991 0 3.33387470013e-12)
(-88.3219999985 0 -5.85918165976e-11)
(-88.3220000014 0 3.81631979243e-11)
(-88.3220000018 0 7.84345043843e-11)
(-88.3219999981 0 -5.50213466975e-11)
(-88.3219999981 0 3.06033158025e-10)
(-88.322000002 0 -1.01881166289e-11)
(-88.3220000014 0 2.61636224927e-11)
(-88.321999999 0 -4.43788462524e-11)
(-88.3219999998 0 -8.91355975995e-12)
(-88.3220000003 0 -4.84306400262e-11)
(-88.3220000001 0 1.41313007494e-10)
(-88.3219999998 0 3.99093271609e-10)
(-88.3220000004 0 2.93337481612e-10)
(-88.3220000012 0 3.0350288173e-10)
(-88.3219999982 0 2.25963923693e-10)
(-88.321999999 0 4.40538857425e-10)
(-88.3220000014 0 1.94929857209e-10)
(-88.3219999998 0 -3.14245662137e-10)
(-88.3220000003 0 1.03142978555e-10)
(-88.3219999994 0 -1.47689127036e-10)
(-88.3219999992 0 2.46755938388e-10)
(-88.3220000013 0 4.90510803579e-10)
(-88.3220000006 0 -4.85039469947e-10)
(-88.322 0 -1.11124892045e-10)
(-88.3219999998 0 3.96156987241e-10)
(-88.3219999997 0 8.6376375088e-11)
(-88.3219999998 0 -3.9683614576e-10)
(-88.3219999996 0 -8.73097671592e-10)
(-88.3219999998 0 7.86666806653e-10)
(-88.3220000001 0 8.16448235417e-10)
(-88.322 0 6.15777316268e-10)
(-88.3220000004 0 -2.7983962957e-10)
(-88.3220000001 0 -8.50327339523e-11)
(-88.322 0 1.55993127149e-10)
(-88.3220000003 0 -2.24748511837e-11)
(-88.322 0 -4.05109520304e-11)
(-88.3219999997 0 -9.00224288668e-12)
(-88.322 0 1.05684170058e-11)
(-88.322 0 2.20989020418e-11)
(-88.322 0 1.90220441661e-11)
(-88.322 0 -2.64088637986e-12)
(-88.322 0 4.65081486522e-11)
(-88.3220000001 0 -1.89597437909e-10)
(-88.3219999998 0 -2.04081944125e-10)
(-88.3219999999 0 1.11918759898e-11)
(-88.3220000001 0 -1.88997239586e-11)
(-88.322 0 2.48620487849e-11)
(-88.3220000001 0 1.05610449165e-10)
(-88.3219999997 0 1.12686655461e-10)
(-88.3219999996 0 -1.31698048449e-11)
(-88.3220000011 0 6.56856141415e-12)
(-88.3220000011 0 1.95227974353e-11)
(-88.3219999984 0 1.02917109904e-11)
(-88.3219999986 0 5.17388141827e-11)
(-88.3220000004 0 -1.19211613251e-10)
(-88.3220000001 0 9.0785682441e-11)
(-88.3220000001 0 3.44747907629e-12)
(-88.3219999999 0 2.09171192868e-10)
(-88.3220000004 0 2.51670678071e-10)
(-88.3220000009 0 3.05007170603e-10)
(-88.3219999996 0 -1.29404807435e-11)
(-88.3219999997 0 1.57561040237e-10)
(-88.3220000003 0 3.32432056976e-10)
(-88.322 0 -2.49304418302e-11)
(-88.322 0 -4.66625682307e-10)
(-88.3219999999 0 -6.75222295533e-10)
(-88.3220000001 0 1.02603632691e-10)
(-88.3219999998 0 7.30154605118e-10)
(-88.3219999999 0 -9.30922684788e-10)
(-88.3220000002 0 -2.73901887659e-10)
(-88.322 0 1.98517749079e-10)
(-88.322 0 3.37388967404e-10)
(-88.322 0 -1.16401648412e-10)
(-88.322 0 2.15269850812e-10)
(-88.322 0 5.80901036536e-11)
(-88.322 0 2.58209134637e-10)
(-88.322 0 -3.98056556133e-11)
(-88.3220000001 0 4.90405126518e-10)
(-88.3219999998 0 4.98624059387e-10)
(-88.3219999997 0 -3.56046052067e-10)
(-88.3220000003 0 -8.99147367622e-11)
(-88.322 0 2.35348485295e-10)
(-88.3220000005 0 -2.10904482813e-11)
(-88.3219999994 0 3.16815928713e-10)
(-88.3219999988 0 -3.41878091311e-10)
(-88.3220000014 0 -4.76189889706e-11)
(-88.3220000014 0 -2.11195597408e-10)
(-88.3219999993 0 9.4406075854e-11)
(-88.322 0 1.22069301664e-10)
(-88.3219999998 0 -3.02653925677e-10)
(-88.322 0 6.72755399561e-10)
(-88.3219999993 0 5.37044972792e-10)
(-88.3219999989 0 3.46075757365e-10)
(-88.3220000002 0 1.48090575735e-10)
(-88.3220000003 0 1.66788724503e-11)
(-88.3220000002 0 -7.7122613733e-11)
(-88.3219999992 0 -1.69781663739e-10)
(-88.322 0 3.24615449865e-10)
(-88.3220000003 0 5.36084352507e-10)
(-88.322 0 -4.76140936782e-11)
(-88.3219999999 0 4.11883145682e-10)
(-88.322 0 3.33367396757e-10)
(-88.322 0 -3.61342078619e-10)
(-88.322 0 1.92563358249e-12)
(-88.3219999999 0 8.16559655753e-11)
(-88.3220000002 0 -2.59154559615e-11)
(-88.3220000002 0 1.29319667456e-10)
(-88.3219999999 0 1.45036119714e-10)
(-88.3219999999 0 -3.96265919518e-10)
(-88.3219999999 0 4.57843349034e-10)
(-88.3219999998 0 3.73372041938e-10)
(-88.3219999998 0 4.36740899218e-10)
(-88.3220000002 0 1.09816167305e-10)
(-88.3220000002 0 -5.39298937236e-10)
(-88.322 0 -2.21920757301e-10)
(-88.3219999999 0 7.91525207331e-10)
(-88.3219999999 0 9.71657562501e-10)
(-88.3220000003 0 -5.45341420464e-10)
(-88.3219999999 0 -5.54611804274e-10)
(-88.3219999998 0 -3.78482383109e-10)
(-88.3219999998 0 -1.69696079728e-11)
(-88.3219999993 0 1.0766704878e-10)
(-88.3219999996 0 -3.49108456552e-10)
(-88.322000001 0 4.38907360298e-10)
(-88.3220000001 0 5.51627434445e-10)
(-88.3219999993 0 -5.83924252452e-11)
(-88.3220000017 0 -3.37690562959e-10)
(-88.3220000006 0 8.03228775692e-11)
(-88.3219999996 0 1.13946187804e-10)
(-88.3220000002 0 9.74991619181e-11)
(-88.3219999991 0 -8.48562163417e-11)
(-88.3220000002 0 -6.46443946199e-12)
(-88.3220000001 0 -4.63609197101e-11)
(-88.3219999999 0 7.53850180858e-12)
(-88.3220000002 0 3.47535176566e-11)
(-88.3219999997 0 3.1687033002e-11)
(-88.322 0 -1.39018874741e-11)
(-88.322 0 8.05703169349e-12)
(-88.322 0 6.68559235357e-12)
(-88.322 0 5.935180771e-12)
(-88.322 0 1.19770601916e-11)
(-88.3220000001 0 -5.00678180446e-11)
(-88.3219999999 0 2.29946904287e-10)
(-88.3220000001 0 -1.54360709773e-10)
(-88.3220000001 0 -6.76379562137e-11)
(-88.3219999997 0 -1.01166216477e-11)
(-88.3220000002 0 3.12968757033e-11)
(-88.322 0 2.33280176215e-10)
(-88.3219999999 0 -4.00120945779e-10)
(-88.3220000011 0 -4.01611430161e-10)
(-88.3220000002 0 2.88938228028e-10)
(-88.3219999994 0 2.76483278428e-10)
(-88.3220000006 0 3.31200156476e-11)
(-88.3219999986 0 3.46036052098e-10)
(-88.3219999982 0 -7.3789069956e-11)
(-88.3220000002 0 3.75405439795e-10)
(-88.3220000005 0 -2.69019828485e-10)
(-88.3220000007 0 -7.51258540132e-11)
(-88.3220000008 0 -2.20446108815e-10)
(-88.3220000003 0 4.05982799445e-10)
(-88.3219999993 0 2.16317524498e-11)
(-88.3219999987 0 -1.92962596092e-10)
(-88.3220000011 0 3.42358416839e-11)
(-88.3220000002 0 1.97332220854e-11)
(-88.3219999989 0 3.68730554418e-11)
(-88.3220000016 0 -6.50638420927e-11)
(-88.3220000007 0 4.976248626e-11)
(-88.3219999992 0 -1.29154566392e-10)
(-88.3220000001 0 -1.5809862229e-10)
(-88.3219999999 0 3.91947777613e-10)
(-88.3219999998 0 -3.73549689722e-10)
(-88.3220000009 0 -3.63360659431e-10)
(-88.3219999993 0 -6.16255946775e-11)
(-88.3219999986 0 -1.15922618573e-10)
(-88.322 0 -1.09861734973e-11)
(-88.3220000007 0 -1.72898685124e-10)
(-88.3220000017 0 -9.27354803724e-11)
(-88.3220000001 0 1.97248101805e-11)
(-88.3219999985 0 -2.06112342046e-12)
(-88.3219999988 0 2.24636439045e-12)
(-88.322000001 0 -1.7798107867e-11)
(-88.3220000016 0 -1.33024012616e-12)
(-88.322 0 3.76845199068e-11)
(-88.321999999 0 -6.74430102853e-11)
(-88.3219999992 0 4.00973690285e-11)
(-88.3220000006 0 -2.55120398115e-10)
(-88.3219999997 0 -2.93301684015e-10)
(-88.3219999992 0 -4.93964428188e-10)
(-88.3220000006 0 2.18329494572e-10)
(-88.3220000015 0 -3.87242058776e-10)
(-88.3220000001 0 -3.44952552305e-10)
(-88.3219999991 0 7.14165037228e-10)
(-88.3219999999 0 1.80818401631e-10)
(-88.3220000003 0 -1.2416487891e-10)
(-88.3220000003 0 -3.5682605088e-10)
(-88.3219999998 0 -1.3918757842e-10)
(-88.3219999999 0 5.57520686201e-10)
(-88.322 0 -1.12928029368e-10)
(-88.322 0 -1.02526680012e-10)
(-88.322 0 3.19649108766e-11)
(-88.322 0 6.31047222637e-11)
(-88.322 0 -1.34139931242e-10)
(-88.322 0 4.35370261756e-11)
(-88.322 0 2.85104590785e-11)
(-88.3220000001 0 5.21227296896e-12)
(-88.3219999997 0 -5.85519032862e-12)
(-88.322 0 -1.85444651782e-11)
(-88.3220000003 0 2.29244089626e-11)
(-88.322 0 -2.24942078427e-11)
(-88.3219999999 0 8.25177683252e-11)
(-88.3220000001 0 -3.24042364828e-11)
(-88.3220000002 0 6.74823983584e-11)
(-88.3219999999 0 -7.34555062838e-11)
(-88.322 0 4.46387790813e-11)
(-88.3220000001 0 3.21217068525e-10)
(-88.3219999999 0 5.49525763326e-11)
(-88.3219999999 0 7.32253394675e-11)
(-88.3220000001 0 4.49285743511e-10)
(-88.3219999999 0 -4.54588290377e-10)
(-88.3219999998 0 -3.75141825781e-10)
(-88.3219999998 0 7.847698903e-11)
(-88.3220000001 0 2.08411367269e-10)
(-88.3220000003 0 -9.26655586562e-11)
(-88.322 0 7.3117275518e-11)
(-88.3220000003 0 1.63760923701e-10)
(-88.3219999999 0 -3.09646770106e-10)
(-88.3219999999 0 -5.52700645045e-10)
(-88.322 0 2.03416418748e-10)
(-88.3220000001 0 -4.25699801246e-10)
(-88.3219999999 0 -3.46606260369e-10)
(-88.3220000001 0 3.5875723221e-10)
(-88.3220000004 0 -7.85180334571e-12)
(-88.3219999988 0 -1.07862966993e-10)
(-88.3220000007 0 5.39087722094e-11)
(-88.3220000018 0 -1.30783048714e-10)
(-88.3219999993 0 -9.98980019879e-11)
(-88.3219999993 0 3.08589514444e-10)
(-88.3219999997 0 -4.59107707605e-10)
(-88.3219999999 0 -3.41477146492e-10)
(-88.3219999999 0 -4.23283991049e-10)
(-88.3219999999 0 -2.76101334588e-11)
(-88.3220000001 0 3.83859200946e-10)
(-88.322 0 2.8913170438e-11)
(-88.322 0 -3.53079958873e-10)
(-88.3219999999 0 -5.91837016467e-10)
(-88.3220000002 0 1.55135235834e-10)
(-88.322 0 2.0770116088e-10)
(-88.3219999998 0 1.75306235569e-10)
(-88.3220000002 0 -2.62090335493e-10)
(-88.3219999999 0 -2.5666005297e-10)
(-88.3220000001 0 3.73164740865e-11)
(-88.322 0 -4.2537391055e-10)
(-88.322 0 -3.82178237419e-10)
(-88.3220000002 0 -1.05703813142e-10)
(-88.3219999995 0 3.85153573657e-10)
(-88.3219999997 0 -5.97938136124e-11)
(-88.3220000013 0 -6.41094095895e-11)
(-88.3220000013 0 -9.62840404384e-11)
(-88.3219999991 0 -4.05146910827e-11)
(-88.3219999983 0 1.7471019615e-10)
(-88.322 0 -3.00149243787e-11)
(-88.3220000012 0 4.96499191874e-11)
(-88.322 0 -2.50771997327e-11)
(-88.3219999994 0 -1.34147134308e-11)
(-88.3220000003 0 3.06910081561e-11)
(-88.322 0 -2.16847857091e-13)
(-88.3219999997 0 -9.80499274329e-12)
(-88.3220000001 0 -3.0763678572e-11)
(-88.322 0 -2.22582518315e-11)
(-88.3220000001 0 3.6239415661e-11)
(-88.3219999999 0 -1.49608814755e-10)
(-88.3220000001 0 3.05934434022e-11)
(-88.322 0 7.67384653324e-11)
(-88.3219999997 0 -1.15254999488e-10)
(-88.3220000001 0 -1.04126121136e-10)
(-88.322 0 6.79893705545e-11)
(-88.3219999999 0 4.83902513279e-10)
(-88.3220000004 0 4.95034948894e-10)
(-88.3220000002 0 -2.92615788576e-10)
(-88.3219999999 0 -2.94200714229e-10)
(-88.3219999999 0 -1.60920801413e-10)
(-88.3219999997 0 -4.10904445513e-10)
(-88.3219999998 0 1.41026000146e-10)
(-88.3219999992 0 -3.76638136056e-10)
(-88.3219999994 0 3.37847308386e-10)
(-88.3220000011 0 -1.28438703858e-10)
(-88.3220000004 0 1.14714482029e-10)
(-88.3220000002 0 -2.31443601116e-10)
(-88.3220000001 0 -1.31903044759e-11)
(-88.322 0 -3.85668127841e-11)
(-88.322 0 -1.20207072869e-11)
(-88.322 0 -6.23192247255e-11)
(-88.322 0 6.43052336124e-11)
(-88.322 0 3.03130053909e-11)
(-88.322 0 -7.59622251427e-11)
(-88.3220000001 0 1.23829674692e-10)
(-88.322 0 1.45632103334e-10)
(-88.322 0 -4.3780364203e-10)
(-88.322 0 5.10239492732e-10)
(-88.322 0 5.26636003623e-10)
(-88.322 0 9.37942883198e-11)
(-88.322 0 1.16095919546e-10)
(-88.322 0 -1.17952006197e-11)
(-88.322 0 6.36456633195e-11)
(-88.322 0 -1.17959169649e-11)
(-88.322 0 6.92748933489e-12)
(-88.322 0 2.15623511765e-12)
(-88.322 0 -1.94928942323e-11)
(-88.322 0 1.72949490591e-11)
(-88.322 0 2.63121802441e-13)
(-88.322 0 9.99472860323e-11)
(-88.322 0 -3.85174178957e-11)
(-88.322 0 -3.98920098887e-11)
(-88.322 0 4.61298491113e-11)
(-88.322 0 -2.42266408649e-11)
(-88.322 0 2.28276346067e-11)
(-88.322 0 -1.35645835725e-10)
(-88.322 0 3.83776163426e-11)
(-88.322 0 -4.86369732375e-11)
(-88.322 0 -7.12801839956e-11)
(-88.322 0 2.13831757397e-10)
(-88.3220000002 0 -8.60755150742e-11)
(-88.3219999999 0 1.25417570171e-10)
(-88.3219999998 0 -1.46582834987e-10)
(-88.3220000001 0 -6.88112296755e-10)
(-88.322 0 1.33269957564e-10)
(-88.322 0 2.69436346876e-10)
(-88.322 0 -7.34253353801e-12)
(-88.322 0 -6.26439613458e-11)
(-88.322 0 1.4181553323e-10)
(-88.322 0 -6.58539459577e-11)
(-88.322 0 -2.40286668653e-11)
(-88.322 0 -1.76168226509e-11)
(-88.322 0 -4.45524891667e-11)
(-88.322 0 1.01237838204e-10)
(-88.3219999999 0 -8.74617002304e-12)
(-88.3220000002 0 1.50769927115e-10)
(-88.3220000002 0 -3.8639508041e-11)
(-88.3219999997 0 -5.24510883087e-11)
(-88.3219999991 0 -1.21534741285e-10)
(-88.3219999991 0 7.01014654251e-11)
(-88.3220000016 0 1.06410361305e-10)
(-88.3220000018 0 -2.41507857097e-10)
(-88.3219999995 0 -9.73220003213e-11)
(-88.3220000001 0 -7.92525718721e-11)
(-88.3219999995 0 -8.3191018808e-11)
(-88.3219999998 0 3.32497688898e-11)
(-88.3219999994 0 6.0121484303e-11)
(-88.3219999993 0 -9.3610201886e-10)
(-88.3220000005 0 -7.21326402981e-10)
(-88.322 0 -2.2041284162e-10)
(-88.3219999997 0 8.77295400038e-11)
(-88.322 0 1.14462919534e-10)
(-88.3219999999 0 -1.27051468884e-10)
(-88.322 0 -4.08162723355e-11)
(-88.3219999998 0 4.78992817934e-11)
(-88.3219999999 0 4.61530463519e-11)
(-88.3220000002 0 -9.37589042711e-11)
(-88.322 0 -1.05528178142e-10)
(-88.322 0 -3.36844150576e-11)
(-88.322 0 -4.56476290758e-11)
(-88.322 0 -6.62925306599e-12)
(-88.3219999999 0 -1.53427231003e-11)
(-88.3220000001 0 -4.85980344679e-12)
(-88.3220000001 0 -1.94561810917e-11)
(-88.3219999999 0 -2.54586548435e-11)
(-88.322 0 -3.15762823393e-11)
(-88.322 0 -2.4662585826e-11)
(-88.322 0 -9.25420219919e-12)
(-88.322 0 3.85573308309e-11)
(-88.322 0 -1.55410596573e-10)
(-88.3219999999 0 -6.10446680448e-11)
(-88.3219999999 0 4.02783460929e-10)
(-88.322 0 2.96039198622e-10)
(-88.3220000001 0 -4.24474702779e-10)
(-88.3220000001 0 -3.33967102399e-10)
(-88.322 0 -1.19925356577e-10)
(-88.3219999999 0 5.10423793505e-11)
(-88.3220000001 0 -1.34423326189e-10)
(-88.3220000002 0 9.57914135901e-11)
(-88.322 0 -1.37442591055e-10)
(-88.3220000001 0 -3.88857536417e-10)
(-88.3219999998 0 -2.86371709726e-10)
(-88.3219999992 0 1.6270770048e-10)
(-88.3220000013 0 -3.79119838441e-10)
(-88.3220000014 0 -4.26125272209e-10)
(-88.3219999993 0 -3.94268648965e-10)
(-88.3219999999 0 4.14091444787e-10)
(-88.3219999995 0 3.24611001054e-10)
(-88.3219999992 0 -3.52501804186e-10)
(-88.3220000002 0 -2.42545464969e-10)
(-88.322 0 4.61766402499e-10)
(-88.322 0 9.49552152191e-11)
(-88.322 0 -2.97878411779e-10)
(-88.322 0 -4.91334530035e-10)
(-88.322 0 2.41570002986e-10)
(-88.3220000001 0 -2.30090252846e-10)
(-88.3219999999 0 -5.06109310013e-11)
(-88.3219999998 0 -4.82885451238e-10)
(-88.322 0 4.20615023145e-10)
(-88.3220000001 0 -8.93514377932e-11)
(-88.322 0 5.26305590911e-11)
(-88.3220000004 0 1.96200785774e-10)
(-88.3219999998 0 -3.39284109126e-10)
(-88.3219999995 0 -8.07300167203e-10)
(-88.322000001 0 -9.37658697854e-10)
(-88.3220000006 0 -3.30942136128e-10)
(-88.3219999996 0 8.65790968772e-10)
(-88.3219999998 0 5.16553230675e-10)
(-88.3219999994 0 -7.03031972966e-11)
(-88.3219999995 0 -5.80847232544e-10)
(-88.3220000011 0 6.21035276221e-10)
(-88.3220000009 0 -2.12186544135e-11)
(-88.3219999996 0 -1.56106558295e-10)
(-88.3219999996 0 -1.29258875972e-11)
(-88.322 0 1.01817200572e-10)
(-88.3220000005 0 5.87463023345e-11)
(-88.3220000003 0 1.69747777495e-10)
(-88.3219999997 0 -1.91728079092e-10)
(-88.3219999999 0 1.35175134423e-10)
(-88.3220000003 0 -2.23254232884e-10)
(-88.3220000002 0 1.60170640688e-10)
(-88.3219999999 0 1.92973643127e-10)
(-88.322 0 -1.748872852e-10)
(-88.3219999999 0 -3.73512919654e-10)
(-88.322 0 -1.43988586606e-10)
(-88.322 0 -4.17052890628e-10)
(-88.322 0 -4.20372446327e-10)
(-88.322 0 -1.81554394378e-10)
(-88.322 0 7.48387833393e-11)
(-88.322 0 3.13652213248e-11)
(-88.322 0 7.99701248218e-11)
(-88.3219999999 0 -2.88143817529e-10)
(-88.3220000003 0 -6.07680691094e-10)
(-88.3220000002 0 2.81667401655e-10)
(-88.3219999989 0 2.96006159515e-10)
(-88.3219999993 0 6.80367962321e-10)
(-88.3220000017 0 -3.97046119978e-10)
(-88.3220000012 0 -3.42758422967e-10)
(-88.3219999994 0 2.64026968122e-10)
(-88.3219999993 0 2.47490883576e-10)
(-88.322 0 2.50559947563e-10)
(-88.322 0 1.01292031467e-10)
(-88.3220000001 0 2.43388262976e-10)
(-88.3220000009 0 9.67704343402e-11)
(-88.3220000002 0 1.33743635186e-11)
(-88.3219999989 0 8.02267903898e-11)
(-88.3220000002 0 -1.0945175007e-10)
(-88.3220000011 0 -3.6621846217e-10)
(-88.3220000003 0 4.64620434756e-10)
(-88.3219999982 0 6.60767289041e-10)
(-88.3219999983 0 4.0255688619e-10)
(-88.3220000015 0 6.55283210898e-10)
(-88.3220000011 0 -3.91769640533e-10)
(-88.3219999985 0 -1.54682688844e-11)
(-88.3219999993 0 9.72626119793e-12)
(-88.3220000015 0 -4.49356703562e-11)
(-88.3220000011 0 4.76488665799e-11)
(-88.3219999989 0 -6.65223078288e-11)
(-88.3219999995 0 2.90991298233e-11)
(-88.3220000005 0 -9.46630604041e-11)
(-88.3220000005 0 -2.40270143596e-10)
(-88.321999999 0 1.99836601829e-10)
(-88.3219999991 0 2.69469644274e-10)
(-88.322000001 0 3.50882968482e-10)
(-88.3219999996 0 -3.12473153112e-10)
(-88.3220000004 0 -3.24757633903e-10)
(-88.3220000009 0 5.37559104677e-10)
(-88.3220000002 0 5.56708428046e-11)
(-88.3220000007 0 9.7494301817e-11)
(-88.3219999983 0 3.28616498958e-10)
(-88.3219999979 0 4.94791665138e-10)
(-88.3220000019 0 5.49216349228e-10)
(-88.3220000015 0 -1.92455614957e-10)
(-88.3219999984 0 -2.83077703171e-10)
(-88.3219999983 0 -1.82857574475e-10)
(-88.3220000008 0 4.0001372876e-10)
(-88.3220000005 0 3.34420928985e-10)
(-88.3219999995 0 2.58599370724e-10)
(-88.322 0 -1.46863983812e-10)
(-88.3219999999 0 -1.87359160137e-10)
(-88.3220000003 0 1.02686250454e-10)
(-88.322 0 -2.27142554002e-11)
(-88.3219999999 0 -4.06984622895e-11)
(-88.3219999999 0 -8.03606316834e-11)
(-88.3219999994 0 8.26373007803e-11)
(-88.3220000006 0 6.90321494185e-11)
(-88.3220000011 0 2.73726031442e-11)
(-88.3219999999 0 -2.52497943346e-11)
(-88.322 0 -2.16523072769e-10)
(-88.3220000004 0 -3.32946908781e-11)
(-88.3219999997 0 -6.51145303169e-11)
(-88.3219999991 0 -7.74876453996e-11)
(-88.3219999995 0 5.42157137713e-11)
(-88.322 0 -7.3284567942e-11)
(-88.3220000006 0 -1.20794408217e-11)
(-88.3220000014 0 6.37070851484e-12)
(-88.321999999 0 -6.25348708011e-11)
(-88.3219999982 0 1.72108083214e-10)
(-88.3219999991 0 1.28699805347e-11)
(-88.3220000013 0 -2.96652706776e-10)
(-88.3220000021 0 -2.06922940556e-10)
(-88.3219999989 0 3.06024374823e-10)
(-88.3219999989 0 4.09326274375e-10)
(-88.322 0 1.25965885922e-10)
(-88.3220000001 0 -3.99298497228e-11)
(-88.3220000001 0 1.38813770881e-10)
(-88.3220000002 0 -6.99828019374e-11)
(-88.3220000004 0 1.47218198118e-10)
(-88.3220000001 0 3.88729967966e-10)
(-88.322 0 2.87461626891e-10)
(-88.3219999999 0 -1.67770072773e-10)
(-88.3220000002 0 4.52942310712e-10)
(-88.3219999996 0 2.91348513343e-10)
(-88.3219999993 0 5.49277710554e-10)
(-88.322 0 -4.59599861061e-10)
(-88.322000001 0 -3.18086875627e-10)
(-88.3220000005 0 4.78913807586e-10)
(-88.3219999995 0 2.27449656091e-10)
(-88.322 0 -4.59032135487e-10)
(-88.322 0 -8.82740961418e-11)
(-88.3220000001 0 2.8646695259e-10)
(-88.322 0 5.05861954957e-10)
(-88.322 0 -3.48358652634e-10)
(-88.3220000006 0 2.10339802624e-10)
(-88.3219999994 0 2.2651388175e-11)
(-88.3219999987 0 4.83405367424e-10)
(-88.3219999997 0 -4.40044196995e-10)
(-88.3220000013 0 2.24137129569e-11)
(-88.3220000014 0 1.06453051736e-10)
(-88.3219999987 0 -4.23748119721e-10)
(-88.3219999991 0 1.01208736879e-10)
(-88.3220000003 0 6.61557455666e-10)
(-88.3220000004 0 6.20030073819e-10)
(-88.3219999999 0 3.55139087385e-10)
(-88.3219999993 0 -3.97275822813e-10)
(-88.3220000011 0 -5.33617409864e-10)
(-88.3220000009 0 4.53532043602e-10)
(-88.3219999996 0 3.99314813489e-10)
(-88.3219999998 0 -3.10614846103e-10)
(-88.322 0 -4.48826019238e-10)
(-88.3219999999 0 1.10324563723e-10)
(-88.322 0 -1.52982787926e-10)
(-88.322 0 -2.4803311782e-11)
(-88.322 0 8.60287705602e-11)
(-88.322 0 -1.43210778605e-10)
(-88.322 0 1.7210203366e-10)
(-88.322 0 -6.92952818536e-11)
(-88.322 0 1.43969059635e-10)
(-88.322 0 -1.75670559462e-10)
(-88.322 0 -1.01988860087e-10)
(-88.3220000001 0 -1.57615238864e-10)
(-88.3220000003 0 9.74487554144e-12)
(-88.322 0 2.86102976285e-10)
(-88.3219999997 0 1.54759450323e-10)
(-88.3220000001 0 -1.07598142258e-10)
(-88.3219999998 0 -2.31076985622e-10)
(-88.322 0 9.40901166977e-11)
(-88.3220000001 0 1.26933697794e-10)
(-88.3219999998 0 -1.60891326625e-10)
(-88.322 0 3.11453035524e-10)
(-88.322 0 6.0242778988e-10)
(-88.3220000001 0 -2.67280540267e-10)
(-88.3219999998 0 -3.06216450948e-10)
(-88.3219999998 0 -6.98349775151e-10)
(-88.3220000004 0 3.29034460201e-10)
(-88.322 0 3.16936702187e-10)
(-88.3219999998 0 -2.78742736138e-10)
(-88.3220000001 0 -2.48456209739e-10)
(-88.322 0 -2.72824525871e-10)
(-88.322 0 -1.73504470433e-10)
(-88.322 0 -1.84077979296e-10)
(-88.322 0 -9.16355555444e-11)
(-88.322 0 8.16520088806e-11)
(-88.322 0 1.04827041007e-10)
(-88.3219999998 0 -1.33980334358e-10)
(-88.3220000002 0 2.73208816911e-10)
(-88.3220000002 0 -2.81432142604e-10)
(-88.3219999997 0 -5.38296785111e-10)
(-88.322 0 -4.43726280314e-10)
(-88.3219999998 0 -7.65985963132e-11)
(-88.3220000001 0 -1.05846789743e-10)
(-88.3220000004 0 -4.07965949161e-10)
(-88.3219999999 0 2.2482002526e-10)
(-88.322 0 2.96985356034e-10)
(-88.322 0 -3.41548811596e-10)
(-88.3220000002 0 2.94701203468e-11)
(-88.3220000001 0 -4.57985119808e-10)
(-88.3219999998 0 -4.08635536243e-10)
(-88.322 0 7.07303506795e-11)
(-88.3219999999 0 -6.43725058263e-10)
(-88.322 0 -3.77265275849e-10)
(-88.3219999999 0 -3.94667313486e-10)
(-88.3220000005 0 2.09909256269e-10)
(-88.3220000005 0 2.88669441048e-10)
(-88.3219999989 0 -4.57744183349e-10)
(-88.3219999992 0 -7.06462634349e-11)
(-88.3220000013 0 -4.09170998053e-10)
(-88.3220000003 0 2.52681784747e-10)
(-88.3219999997 0 -4.10272487398e-10)
(-88.3220000003 0 -7.7280706226e-10)
(-88.3219999998 0 -2.10858653279e-10)
(-88.3219999999 0 5.71805323533e-11)
(-88.322 0 2.45204439984e-10)
(-88.322 0 3.34737843394e-11)