/*--------------------------------*- C++ -*----------------------------------*\
  =========                 |
  \\      /  F ield         | OpenFOAM: The Open Source CFD Toolbox
   \\    /   O peration     | Website:  https://openfoam.org
    \\  /    A nd           | Version:  6
     \\/     M anipulation  |
\*---------------------------------------------------------------------------*/
FoamFile
{
    version     2.0;
    format      ascii;
    class       volScalarField;
    location    "4.74e-05";
    object      p;
}
// * * * * * * * * * * * * * * * * * * * * * * * * * * * * * * * * * * * * * //

dimensions      [1 -1 -2 0 0 0 0];

internalField   nonuniform List<scalar> 
8192
(
6000000.00058
5999999.99938
6000000.00048
6000000.00085
6000000.00449
5999999.99775
6000000.00149
5999999.99963
6000000.00019
5999999.99985
6000000.00018
5999999.99979
6000000.00063
6000000.00143
6000000.0007
6000000.00055
6000000.00055
5999999.99834
5999999.99901
6000000.00062
5999999.99855
5999999.99721
6000000.00176
5999999.99982
5999999.99957
6000000.00017
5999999.99828
5999999.99924
5999999.99823
5999999.99914
6000000.00023
6000000.00049
5999999.9966
5999999.99377
6000000.00771
6000000.0076
5999999.99905
6000000.00449
5999999.99944
5999999.99727
6000000.00338
5999999.99781
6000000.00019
5999999.99988
6000000.00035
6000000.00034
6000000.00005
5999999.99992
5999999.9992
6000000.00155
5999999.99713
6000000.00051
6000000.00299
5999999.99609
5999999.99669
6000000.00123
5999999.99989
6000000.00291
5999999.99995
6000000.00557
5999999.99668
5999999.9975
5999999.99709
6000000.00228
6000000.00062
6000000.00206
5999999.9998
6000000.00379
5999999.99579
6000000.00311
5999999.9987
5999999.99688
6000000.00263
6000000.00276
6000000.00683
5999999.99673
5999999.99439
6000000.00646
6000000.0025
5999999.99537
5999999.99437
5999999.99195
6000000.00315
6000000.00585
6000000.00007
5999999.99913
6000000.00638
6000000.00477
5999999.99769
5999999.99716
5999999.99858
5999999.99832
5999999.99713
6000000.00416
5999999.99694
6000000.00213
6000000.0016
5999999.99944
6000000.00379
5999999.99827
5999999.99967
5999999.99988
5999999.99972
6000000.00018
5999999.99906
6000000.00028
6000000.00012
6000000
5999999.99998
5999999.99998
6000000.00007
6000000.00022
5999999.99942
6000000.00064
5999999.99974
6000000.00117
6000000.00011
5999999.99875
6000000.00081
5999999.99916
5999999.99928
5999999.99889
6000000.00008
5999999.99906
6000000.00019
5999999.99953
6000000.00034
6000000.00032
6000000.00592
6000000.00052
5999999.99722
6000000.00057
5999999.99877
5999999.99951
5999999.99997
5999999.99975
6000000.00062
6000000.0009
5999999.99852
6000000.00368
6000000.0008
6000000.00323
6000000.00441
5999999.99667
5999999.99672
5999999.99812
6000000.00213
6000000.0023
5999999.99991
5999999.99987
5999999.99887
6000000.0007
5999999.99487
6000000.00072
5999999.99685
5999999.99664
6000000.00158
6000000.0009
5999999.99848
5999999.99913
5999999.99978
5999999.99962
6000000.00019
6000000.00054
5999999.99963
6000000.00224
6000000.00019
6000000.00117
5999999.99799
6000000.00059
5999999.99751
6000000.00303
6000000.00205
6000000.00277
6000000.00195
6000000.00409
6000000.00235
6000000.00056
5999999.99433
6000000.0028
6000000.00154
5999999.99802
6000000.00077
5999999.99797
6000000.00273
6000000.00108
6000000.00211
5999999.99343
5999999.99235
6000000.00184
6000000.00634
6000000.00419
5999999.99927
5999999.99949
6000000.00096
6000000.00025
5999999.99991
6000000.00001
5999999.99997
6000000.00001
6000000.00015
6000000.00003
6000000.00001
5999999.99761
5999999.99758
6000000.00286
5999999.99925
5999999.99997
6000000.00004
5999999.99998
6000000.00011
6000000.00027
6000000.00031
5999999.99942
5999999.99994
6000000.00003
5999999.9998
6000000.00001
6000000
5999999.99586
6000000.00076
6000000.00164
5999999.9969
6000000.00093
6000000.00697
5999999.99405
5999999.99681
6000000.00531
6000000.00862
5999999.99176
5999999.9952
6000000.00154
6000000.00392
5999999.99569
6000000.00312
6000000.00026
6000000.00472
5999999.99824
6000000.00717
6000000.00365
5999999.99154
6000000.00042
6000000.0063
5999999.99821
6000000.00539
5999999.994
5999999.99855
6000000.00161
6000000.00303
6000000.00379
6000000.00055
6000000.00226
6000000.00081
5999999.99893
5999999.99938
5999999.99918
5999999.9999
5999999.9988
6000000.00059
5999999.99806
6000000.00223
5999999.99844
5999999.9997
5999999.99922
5999999.99973
5999999.99992
5999999.99984
6000000.00126
6000000.00168
5999999.99671
6000000.00038
6000000.00133
5999999.99997
6000000.00273
5999999.99506
5999999.99719
6000000.00518
6000000.00107
5999999.99626
5999999.99501
5999999.99944
5999999.99447
5999999.99826
5999999.9947
6000000.00162
6000000.00518
5999999.99618
6000000.00057
5999999.99913
6000000.00135
5999999.99954
5999999.99927
6000000.00167
5999999.99765
6000000.00183
6000000.00011
6000000
6000000.00016
6000000.00001
6000000.00001
6000000.00002
6000000.00028
5999999.99888
6000000.00146
5999999.99696
5999999.9999
5999999.99852
6000000.00162
6000000.0057
5999999.99846
5999999.99364
6000000.00273
6000000.00652
5999999.99782
6000000.00351
5999999.99827
6000000.00666
5999999.99637
5999999.99683
5999999.9964
6000000.00202
6000000.00216
5999999.99547
6000000.00184
6000000.00096
6000000.00015
6000000.00089
5999999.99872
6000000.00033
6000000.00061
5999999.9982
6000000.00259
6000000.00225
6000000.00098
6000000.00022
5999999.99966
5999999.99714
5999999.99756
6000000.00054
6000000.00089
5999999.99978
5999999.99849
5999999.99782
6000000.00084
5999999.99653
6000000.00078
5999999.9966
5999999.99402
5999999.99667
6000000.00343
5999999.99754
5999999.99626
6000000.0073
5999999.99874
6000000.00293
6000000.00002
5999999.99677
6000000.00392
5999999.9957
6000000.00356
5999999.99977
5999999.9995
6000000.00089
5999999.99981
6000000.00057
6000000.00011
6000000.00065
6000000.00163
5999999.99818
6000000.00298
6000000.00112
5999999.99754
6000000.00189
5999999.9999
5999999.99989
6000000.00394
5999999.99816
6000000.00363
6000000.003
5999999.99376
5999999.99262
5999999.99559
5999999.99879
6000000.00104
6000000.002
6000000.00276
5999999.99446
5999999.99164
6000000.00157
5999999.99608
5999999.99869
6000000.00527
5999999.99835
5999999.99883
6000000.00202
5999999.99672
5999999.99799
6000000.00652
5999999.996
5999999.99913
5999999.99389
6000000.00172
6000000.00516
5999999.99978
5999999.99803
5999999.99128
6000000.00391
5999999.99928
6000000.00435
5999999.99859
5999999.99686
6000000.00289
5999999.99476
5999999.99337
6000000.00028
6000000.00289
5999999.99817
5999999.99797
5999999.99762
6000000.00181
6000000.00197
5999999.99777
6000000.00187
5999999.99856
5999999.9993
6000000.00101
5999999.99926
5999999.99979
6000000.00002
6000000.00038
6000000.00119
5999999.99692
6000000.00131
6000000.00033
5999999.99953
5999999.99724
6000000.00154
6000000.00053
5999999.99881
6000000.00132
6000000.00122
5999999.9979
5999999.99936
6000000.00032
5999999.99951
5999999.99698
5999999.997
5999999.99876
5999999.9958
6000000.0024
6000000.00202
6000000.0004
6000000.00045
5999999.99925
6000000.00279
5999999.99804
6000000.00296
6000000.00208
5999999.9954
6000000.00456
6000000.00137
6000000.00048
6000000.00077
5999999.99837
6000000.00211
5999999.99992
5999999.99921
6000000.00103
6000000.00018
5999999.99953
5999999.99756
6000000.00387
5999999.997
5999999.99957
6000000.00161
5999999.99708
6000000.00341
5999999.99645
6000000.00236
5999999.99901
5999999.99946
5999999.99743
6000000.00262
6000000.00638
5999999.99808
5999999.99794
6000000.00086
6000000.00259
5999999.9984
5999999.99756
6000000.00543
5999999.99829
5999999.99982
5999999.99973
6000000.0007
6000000.00306
5999999.99752
6000000.00418
5999999.99844
5999999.9986
6000000.00171
6000000.00018
5999999.99989
6000000.00315
6000000.00066
6000000.00266
5999999.99895
5999999.99899
5999999.99944
5999999.99725
5999999.9949
6000000.00256
6000000.00104
5999999.99865
5999999.99959
5999999.99893
6000000.00007
5999999.99845
6000000.00073
5999999.99927
6000000.00022
5999999.99973
5999999.99997
6000000.00009
5999999.9988
6000000.00067
6000000.0001
5999999.99988
5999999.99989
5999999.9998
6000000.00009
6000000.00014
5999999.99983
5999999.99989
5999999.99982
6000000.00002
5999999.99981
5999999.99992
5999999.99975
5999999.9996
6000000.00001
6000000
5999999.99981
5999999.99998
6000000.00002
5999999.99994
5999999.99868
6000000.00262
5999999.99826
5999999.9993
5999999.9992
5999999.99941
6000000.00001
5999999.99997
6000000.00001
5999999.99993
6000000.00112
6000000.00043
6000000.00004
6000000.00011
5999999.99947
5999999.99762
6000000.00269
6000000.00279
5999999.99874
5999999.99381
5999999.99281
6000000.00168
6000000.00563
6000000.00204
6000000.00412
5999999.99671
6000000.00454
5999999.99365
6000000.00091
5999999.99639
6000000.00042
6000000.00003
6000000.0027
5999999.99903
6000000.00172
5999999.99755
6000000.00158
5999999.99981
6000000.00003
6000000.00026
6000000.00027
6000000.00001
5999999.99965
6000000.00253
5999999.99975
6000000.00001
6000000.00002
5999999.99992
5999999.99989
6000000.00003
6000000.00039
5999999.99916
5999999.99905
5999999.9991
5999999.99905
5999999.99979
5999999.99862
5999999.99716
6000000.00158
6000000.00076
6000000.00079
6000000.00206
5999999.99761
5999999.99723
6000000.00764
6000000.0035
6000000.00118
6000000.00329
5999999.99734
5999999.99903
6000000.00074
5999999.99955
6000000.00063
6000000.00008
6000000.00055
6000000.00032
6000000.00219
5999999.99937
5999999.99832
6000000.00033
5999999.99962
5999999.99999
6000000.00521
5999999.99963
5999999.99771
6000000.00313
6000000.00171
6000000.00062
6000000.00094
5999999.99693
5999999.998
6000000.00478
6000000.00498
6000000.00273
5999999.99729
5999999.99772
6000000.00268
5999999.99979
5999999.99825
5999999.99727
6000000.00358
6000000.00253
5999999.99996
6000000.00157
5999999.99827
6000000.00117
5999999.99955
6000000.00066
6000000.00068
6000000.00051
6000000.00094
5999999.99942
5999999.99903
6000000.00152
6000000.00127
5999999.99362
5999999.99485
6000000.00358
6000000.00119
5999999.99948
5999999.99846
6000000.00282
5999999.99734
6000000.00086
6000000.0015
6000000.00266
5999999.99316
6000000.00284
6000000.00171
6000000.00512
5999999.99534
5999999.99762
6000000.00146
6000000.00081
5999999.99461
5999999.99825
6000000.00412
6000000.0058
5999999.99902
6000000.0018
6000000.0013
6000000.0044
5999999.99718
6000000.00128
6000000.00172
5999999.99586
6000000.00331
6000000.00282
6000000.00564
6000000.00881
5999999.99518
5999999.99785
6000000.00401
6000000.00686
5999999.9944
5999999.99443
6000000.00243
5999999.99774
6000000
6000000.00067
5999999.99656
6000000.00219
5999999.99733
6000000.00089
5999999.99653
5999999.99472
6000000.0034
6000000.00335
5999999.99874
6000000.00339
6000000.00147
6000000.00035
5999999.99963
5999999.99914
5999999.99773
6000000.00389
6000000.00767
5999999.99643
5999999.99871
5999999.99215
6000000.00507
6000000.00654
5999999.99567
5999999.99716
5999999.99593
5999999.9975
5999999.99635
6000000.00063
5999999.99926
6000000.00121
5999999.99924
5999999.9996
6000000.00307
5999999.99473
5999999.99475
5999999.99643
6000000.0063
6000000.00016
5999999.99903
6000000.00098
5999999.99964
6000000.00236
5999999.99925
6000000.00156
6000000.00613
5999999.99617
5999999.99475
5999999.99322
6000000.00271
6000000.00254
5999999.99223
5999999.99716
5999999.99671
6000000.00139
5999999.99858
5999999.99373
6000000.00428
6000000.00413
5999999.99997
6000000.0009
5999999.99999
6000000.00038
6000000.00049
6000000.00028
6000000.00001
5999999.99998
5999999.99991
5999999.99988
6000000.00015
6000000.00018
5999999.99881
6000000.00184
6000000.00578
6000000.00009
6000000.0007
6000000.0025
5999999.99924
6000000.00296
6000000.00092
5999999.99975
5999999.99992
5999999.99981
6000000.00156
5999999.99762
5999999.99725
6000000.00117
5999999.99672
6000000.00094
5999999.99893
5999999.99966
5999999.99953
5999999.99996
5999999.99984
6000000.00006
6000000.00017
5999999.99759
6000000.00304
5999999.99874
5999999.99921
5999999.99995
5999999.99744
6000000.00096
6000000.00089
6000000.00004
6000000.00037
5999999.99892
6000000.00348
5999999.99992
6000000.00006
6000000.00055
5999999.99952
6000000.00041
5999999.99801
6000000.00522
6000000.00323
5999999.99564
5999999.99828
6000000.00227
5999999.99803
6000000.00353
5999999.99923
5999999.99999
6000000.00006
5999999.99964
6000000.00016
5999999.99937
6000000.00108
5999999.99735
6000000.00187
6000000.00093
6000000.00086
5999999.99974
6000000.00025
5999999.99698
6000000.00728
6000000.00327
5999999.9943
6000000.00138
6000000.0031
6000000.00436
5999999.99644
5999999.99493
6000000.00341
5999999.99873
5999999.99952
6000000.00013
5999999.99995
5999999.99992
5999999.99996
6000000.00002
5999999.99989
5999999.99993
5999999.99988
6000000.00019
5999999.99864
6000000.002
5999999.99737
5999999.99951
6000000.00129
5999999.99366
6000000.00496
6000000.00542
6000000.0017
5999999.99914
6000000.00338
6000000.00523
5999999.99713
5999999.99591
6000000.00344
5999999.99942
6000000.00338
6000000.0053
6000000.00057
6000000.00598
6000000.00007
5999999.99979
6000000.00095
6000000.00065
5999999.99988
6000000.00004
6000000.0034
5999999.99833
6000000.00095
6000000.00186
6000000.00317
6000000.00252
5999999.9942
6000000.00158
6000000.00058
6000000.00044
5999999.99911
6000000.00554
6000000.00306
5999999.998
6000000.0027
6000000.0002
5999999.99954
6000000.00069
5999999.99931
6000000.00203
5999999.9933
6000000.00285
6000000.00166
5999999.99984
5999999.99911
6000000.00007
6000000.00095
5999999.9999
6000000.00003
6000000.00002
6000000
6000000.00001
5999999.99989
6000000.00001
5999999.99981
6000000
6000000.00017
5999999.99917
6000000.00119
5999999.99978
5999999.9998
5999999.99976
6000000.00011
5999999.99851
6000000.00026
6000000.00036
6000000.00068
5999999.99805
5999999.99819
6000000.00104
6000000.00142
5999999.99894
6000000.00098
5999999.99847
6000000.00269
6000000.0022
6000000.0005
6000000.00032
5999999.99956
5999999.99885
6000000.00225
5999999.99522
6000000.00671
5999999.99673
5999999.99488
6000000.00418
6000000.00439
6000000.00531
6000000
6000000.00015
5999999.9952
5999999.99493
5999999.99568
6000000.00163
5999999.99768
6000000.00527
5999999.99935
5999999.9977
6000000.00072
5999999.99758
6000000.00166
5999999.99802
6000000.00477
5999999.99354
5999999.99596
6000000.00463
5999999.99528
5999999.99684
5999999.99828
6000000.00158
6000000.00145
6000000.00106
6000000.00002
6000000.00104
6000000.00032
6000000.00231
5999999.99622
6000000.00178
6000000.00096
5999999.99984
5999999.99801
5999999.99982
5999999.99983
5999999.99799
5999999.99886
6000000.00116
5999999.99993
6000000.00136
6000000.0019
5999999.99777
5999999.99887
6000000.00415
5999999.99938
5999999.99981
5999999.99992
6000000.00001
6000000.00001
6000000.00014
6000000.00003
5999999.99992
6000000.00056
6000000.00026
5999999.99649
6000000.00061
5999999.99989
5999999.99982
6000000.00002
6000000.00031
5999999.99811
6000000.00315
6000000.00198
5999999.99507
6000000.00672
5999999.99384
5999999.99271
6000000.00292
6000000.00588
5999999.99231
5999999.99764
5999999.99746
5999999.9995
6000000.00191
5999999.99815
6000000.00089
5999999.99645
5999999.99718
6000000.00022
5999999.99785
6000000.00283
5999999.99769
6000000.00176
6000000.00306
5999999.99532
5999999.99589
5999999.99475
5999999.9996
6000000.00471
6000000.00186
5999999.9962
5999999.99303
6000000.00417
6000000.00318
5999999.99435
5999999.99883
6000000.0055
6000000.00423
5999999.99755
5999999.99806
6000000.00392
5999999.99974
6000000.00002
6000000.00001
5999999.99998
6000000.00067
6000000.00149
5999999.99854
5999999.99831
5999999.99895
6000000.0001
6000000.00137
5999999.9997
6000000.0005
5999999.99844
5999999.99784
6000000.00141
6000000.00041
6000000.00013
6000000.00002
6000000
5999999.99992
5999999.99996
6000000.00021
5999999.99939
5999999.99869
6000000.00016
6000000.00253
5999999.99791
5999999.9999
5999999.99995
5999999.99512
6000000.00083
6000000.00058
6000000.00379
6000000.00165
5999999.99972
6000000.0011
6000000.00047
5999999.99782
6000000.00321
5999999.99697
6000000.00273
6000000.0011
6000000.00446
5999999.99947
5999999.99971
6000000.00597
6000000.00241
6000000.0031
6000000.00193
5999999.99625
5999999.99894
6000000.00248
5999999.99987
5999999.99715
5999999.99751
6000000.00207
5999999.99719
5999999.99927
5999999.99718
6000000.00029
6000000.00218
5999999.9987
5999999.99873
5999999.99872
5999999.99983
5999999.99982
6000000.00107
6000000.00034
6000000.00045
5999999.99921
6000000.00146
6000000.00154
5999999.99792
6000000.00013
6000000.00011
6000000.00002
6000000.00011
6000000.00008
6000000.00079
6000000.00115
5999999.99831
6000000.00241
6000000.00158
5999999.99657
6000000.00447
5999999.99532
5999999.99856
6000000.00266
6000000.00661
6000000.00309
6000000.00214
6000000.00157
5999999.99291
5999999.99743
5999999.99847
5999999.9993
6000000.00313
6000000.00509
5999999.99343
5999999.99705
5999999.99469
6000000.00593
6000000.00277
6000000.00279
5999999.99885
6000000.00077
6000000.00078
6000000.00169
5999999.99954
5999999.99907
5999999.99975
6000000.00003
5999999.99997
6000000.00077
5999999.9992
6000000.0009
5999999.99958
6000000.00004
5999999.99878
5999999.9962
6000000.00304
6000000.00096
5999999.99584
5999999.99512
6000000.00593
5999999.99813
5999999.99563
6000000.00173
6000000.0064
5999999.99523
6000000.00405
5999999.99891
5999999.99834
6000000.005
5999999.99942
6000000.00015
5999999.99998
6000000
6000000.00007
6000000.00001
6000000.00007
6000000.00002
6000000.00007
6000000.0002
6000000.00025
6000000.00003
6000000.00005
5999999.99957
6000000.00086
6000000.0015
5999999.99562
6000000.00338
6000000.0051
5999999.99859
6000000.00176
6000000.00196
6000000.00214
5999999.99939
6000000.00042
5999999.99361
6000000.00109
5999999.99927
6000000.00143
6000000.00233
5999999.99897
5999999.99874
5999999.99927
5999999.9991
6000000.00023
5999999.99875
6000000.00111
6000000.00203
5999999.99841
5999999.99945
5999999.9991
6000000.00092
5999999.99991
6000000
5999999.99995
5999999.99941
6000000.00063
5999999.99927
5999999.99785
6000000.00334
5999999.99676
6000000.00164
5999999.9991
5999999.99943
5999999.99978
5999999.99926
6000000.00199
5999999.99533
6000000.00203
5999999.99943
5999999.99938
6000000.00002
5999999.99944
5999999.99986
5999999.99976
6000000.00084
5999999.99873
5999999.99938
5999999.99995
5999999.99993
5999999.99992
5999999.99998
6000000.00009
5999999.99993
5999999.9998
6000000
5999999.9999
5999999.9999
6000000.00001
5999999.99967
6000000.00129
5999999.99974
6000000.00014
6000000.00015
6000000.00121
5999999.99842
6000000.00172
5999999.99669
6000000.00226
6000000.00142
6000000.00202
6000000.00244
5999999.9969
5999999.99943
5999999.99825
6000000.00214
5999999.99916
5999999.9977
6000000.00125
5999999.99855
5999999.9993
5999999.99971
6000000.00026
6000000.00388
6000000.00156
6000000.00333
5999999.99899
6000000.00031
6000000.00223
5999999.99514
6000000.00107
5999999.99662
6000000.0048
6000000.0022
5999999.9946
5999999.99512
5999999.99524
6000000.00553
6000000.00194
6000000.0059
5999999.99699
5999999.9976
6000000.00085
5999999.9948
5999999.99479
5999999.9972
5999999.9982
6000000.00186
5999999.99536
5999999.99723
5999999.99301
6000000.00006
5999999.9951
5999999.99793
5999999.99695
5999999.99683
5999999.99587
5999999.99507
6000000.00387
6000000.00105
6000000.00117
5999999.99493
6000000.0019
5999999.99991
5999999.99993
6000000.00076
5999999.99904
6000000.00011
5999999.99639
6000000.0034
5999999.99442
5999999.99463
6000000.00216
5999999.99449
5999999.99509
6000000.00611
5999999.99527
5999999.99392
6000000.00086
6000000.00178
5999999.9996
6000000.00101
6000000.00029
6000000.00018
5999999.9999
6000000.0006
5999999.99952
6000000.00044
5999999.99947
6000000.00015
6000000.00015
5999999.99992
5999999.99993
6000000
6000000.00111
5999999.99943
5999999.99957
6000000.00127
5999999.99994
5999999.99991
5999999.99981
5999999.99951
5999999.99905
6000000.00028
6000000.00003
6000000.00018
5999999.99983
5999999.99941
6000000.00049
6000000.00172
5999999.99871
6000000.00099
6000000.00246
6000000.00246
5999999.99652
5999999.99763
6000000.00268
5999999.99951
6000000.00104
6000000.00063
5999999.99716
6000000.00252
6000000.00204
6000000.00028
5999999.99846
6000000.00005
5999999.99812
6000000.00301
6000000.00036
6000000.00117
5999999.99888
5999999.99803
6000000.0056
6000000.00545
5999999.99305
5999999.99721
6000000.00188
6000000.0015
5999999.99882
6000000.00124
5999999.99998
6000000.00311
5999999.99909
6000000.00194
5999999.99966
5999999.99972
6000000.00002
6000000.00004
5999999.99996
5999999.99998
5999999.99998
6000000.00001
6000000.00004
6000000.00014
6000000
6000000
6000000.00001
5999999.99999
6000000.00016
5999999.99998
6000000.00001
5999999.99993
5999999.99996
6000000.00013
6000000.00017
5999999.99995
6000000.00014
5999999.99999
6000000
5999999.9999
6000000.00021
5999999.99995
6000000.00021
5999999.99965
5999999.99946
5999999.99935
6000000.00018
5999999.99989
6000000.00224
5999999.99949
5999999.99969
5999999.99985
6000000.00011
6000000.00003
6000000.00013
5999999.99993
6000000.00001
6000000
5999999.99999
5999999.9992
6000000.00062
5999999.99889
6000000.00298
5999999.9996
5999999.99879
6000000.00149
5999999.99881
6000000.00328
6000000.00378
5999999.99893
5999999.9998
6000000.00631
6000000.00085
6000000.0007
6000000.00073
5999999.99973
6000000.00004
6000000.00007
6000000.00026
6000000.00008
6000000.00007
6000000.00019
5999999.99935
6000000.00099
6000000.00045
6000000.0003
6000000.0002
5999999.99983
6000000.00002
5999999.99992
6000000.00002
6000000.00001
6000000.00084
5999999.99855
5999999.99755
6000000.00281
5999999.99788
6000000.00262
5999999.99691
5999999.99918
5999999.9999
5999999.9974
5999999.99955
6000000.00338
5999999.99557
5999999.99424
6000000.00131
5999999.99378
5999999.99348
6000000.00127
5999999.9972
5999999.9991
5999999.99602
6000000.00215
6000000.00202
5999999.9971
6000000.00416
5999999.99797
5999999.99801
6000000.00219
6000000.00201
5999999.9999
5999999.99945
5999999.99972
6000000.00007
5999999.9999
5999999.99957
6000000.0015
5999999.99946
6000000.00171
5999999.99853
5999999.9984
6000000.00019
5999999.99889
5999999.99947
5999999.99817
5999999.99894
5999999.9989
5999999.99995
5999999.99885
6000000.00387
5999999.9995
5999999.99837
5999999.99976
5999999.99998
5999999.99996
5999999.99983
5999999.99984
6000000.00022
5999999.99998
5999999.99996
6000000.00014
6000000.00008
5999999.99998
6000000.00007
5999999.99998
6000000.00019
6000000.00031
6000000.00053
5999999.99792
5999999.99859
6000000.00096
6000000.00011
5999999.99998
5999999.99998
6000000.00002
5999999.99989
5999999.99979
6000000.00007
6000000
5999999.99916
6000000.00065
5999999.99953
6000000.00108
5999999.99935
6000000.00011
6000000.00157
5999999.9995
6000000.00036
5999999.99981
6000000.00005
5999999.99991
6000000
5999999.99983
5999999.99991
5999999.99997
5999999.99965
5999999.99884
6000000.00023
5999999.99904
6000000.00246
5999999.99848
6000000.00075
6000000.00034
5999999.99985
6000000.00016
6000000.00101
5999999.99929
5999999.99569
6000000.0031
6000000.00018
6000000.00011
6000000.00053
6000000.00141
6000000.00066
5999999.99782
6000000.0036
6000000.00324
6000000.00008
5999999.9982
6000000.00239
6000000.00167
5999999.99856
6000000.00472
6000000.00034
6000000.00252
5999999.99691
5999999.99764
6000000.00106
5999999.99914
5999999.99984
5999999.99708
6000000.0036
6000000.00076
5999999.99911
6000000.00025
5999999.99847
6000000.00283
5999999.9985
6000000.00168
5999999.9953
6000000.00548
6000000.0044
5999999.99808
6000000.00126
5999999.99351
5999999.99285
6000000.0034
6000000.00261
6000000.00487
5999999.99861
5999999.99583
6000000.00431
5999999.9964
5999999.99868
5999999.9989
5999999.99842
6000000.00081
5999999.99939
6000000.00021
5999999.99972
5999999.99958
6000000.00026
5999999.99802
6000000.00166
5999999.99967
5999999.9992
6000000.00188
5999999.99847
6000000.00108
5999999.99643
6000000.00023
5999999.99999
5999999.99964
5999999.99847
5999999.99846
6000000.00147
6000000.00133
5999999.99935
6000000.00629
6000000.0025
5999999.995
6000000.00272
5999999.99868
6000000.00631
6000000.00462
5999999.99737
5999999.99585
5999999.99881
6000000.00648
6000000.00195
5999999.99735
5999999.99653
5999999.99538
6000000.00291
5999999.99682
5999999.99479
5999999.99827
5999999.9947
6000000.00408
5999999.99734
5999999.99719
5999999.99877
6000000.00166
5999999.99764
5999999.99779
6000000.00148
6000000.00115
5999999.99669
5999999.99758
5999999.9959
5999999.99604
5999999.9972
5999999.99832
6000000.00078
5999999.99356
5999999.99468
6000000.00136
6000000.00031
5999999.99553
5999999.99609
5999999.99509
5999999.99407
6000000.00419
5999999.99723
5999999.99237
5999999.99986
5999999.99573
6000000.00202
6000000.00543
5999999.99249
5999999.99445
5999999.99754
6000000.00537
6000000.00111
5999999.99786
6000000.00331
6000000.00498
5999999.99977
6000000.00605
5999999.99619
5999999.99365
6000000.0037
6000000.00072
5999999.99943
5999999.99466
5999999.99637
6000000.0027
5999999.99605
5999999.99836
6000000.00214
5999999.99897
6000000.00292
6000000.00717
6000000.00322
5999999.99856
5999999.99528
5999999.99725
6000000.00583
6000000.0022
5999999.99561
5999999.99715
6000000.00085
6000000.00622
6000000.00096
5999999.99892
5999999.99979
6000000.00159
5999999.99848
5999999.99909
6000000.00363
6000000.00174
5999999.99696
6000000.00268
5999999.99664
5999999.99963
5999999.99737
6000000.00049
6000000.00189
5999999.99409
5999999.99999
6000000.00111
5999999.99415
5999999.99748
6000000.00291
5999999.99813
5999999.99809
6000000.00259
5999999.99843
5999999.99656
5999999.99555
5999999.99815
5999999.99598
5999999.99928
5999999.99796
6000000.00681
5999999.99763
6000000.00035
6000000.00534
5999999.99862
6000000.00182
5999999.99999
6000000.00861
5999999.9971
6000000.00073
6000000.00632
6000000.00693
5999999.99893
5999999.99788
6000000.01011
6000000.00793
6000000.00616
5999999.99806
5999999.99789
6000000.00804
6000000.00847
6000000.00178
6000000.00672
6000000.00237
5999999.99488
6000000.00678
6000000.00796
6000000.00013
5999999.99719
6000000.00752
6000000.00261
5999999.99394
6000000.00243
6000000.00217
6000000.00915
6000000.00777
5999999.99762
6000000.00224
6000000.00722
5999999.99614
5999999.9993
6000000.0065
6000000.00931
6000000.00049
6000000.00633
6000000.00563
6000000.00488
5999999.99795
6000000.00118
6000000.00843
6000000.00953
6000000.01012
6000000.003
6000000.00292
6000000.00639
6000000.01038
5999999.99971
6000000.00289
6000000.00578
5999999.99656
6000000.00577
6000000.00525
6000000.00986
6000000.00421
6000000.00742
6000000.00578
5999999.99351
6000000.00685
6000000.00218
5999999.99843
6000000.00876
5999999.99882
5999999.99983
5999999.99861
6000000.00046
5999999.99828
5999999.99963
5999999.9989
5999999.99953
5999999.99926
5999999.99948
5999999.99726
5999999.99778
5999999.99963
5999999.99816
6000000.00022
5999999.99825
5999999.99897
5999999.99822
6000000.00013
5999999.99798
5999999.9974
5999999.99861
5999999.9997
5999999.99858
5999999.99871
5999999.99961
5999999.99765
5999999.99849
5999999.99932
5999999.99573
5999999.99828
6000000.00025
5999999.99916
5999999.99665
5999999.99944
5999999.9975
5999999.99991
5999999.99892
5999999.99872
5999999.99681
5999999.99907
6000000.00006
5999999.99788
5999999.99941
5999999.99963
5999999.99869
5999999.99881
5999999.99917
5999999.99667
5999999.99682
5999999.99935
5999999.99991
6000000.00023
6000000.00073
5999999.99827
5999999.999
5999999.99794
5999999.99826
5999999.99835
5999999.99872
5999999.99958
6000000.00046
6000000.00206
5999999.99833
5999999.99946
5999999.99938
5999999.99983
5999999.99962
6000000.00058
5999999.99981
5999999.99952
6000000.00033
5999999.99972
5999999.99975
5999999.99971
5999999.99976
6000000.00052
6000000.00002
5999999.99981
5999999.99966
6000000.00026
6000000.00037
5999999.9998
6000000.00027
5999999.99985
6000000.00037
5999999.99991
5999999.99985
6000000.00019
5999999.99997
6000000.00043
5999999.99981
6000000
5999999.99946
6000000.0003
6000000.00045
6000000.00025
6000000.00054
5999999.99988
6000000.00047
6000000.00051
5999999.99968
6000000.00018
5999999.99988
6000000.00036
6000000.00009
5999999.99967
6000000.0005
6000000.00014
6000000.00049
6000000.0003
5999999.99956
5999999.99975
5999999.99973
6000000.00012
6000000.00009
6000000.00036
6000000.00046
5999999.99971
6000000.00002
6000000.00024
5999999.99991
6000000.00024
6000000.00018
6000000.00028
6000000.00043
5999999.99973
6000000.00063
6000000.00068
6000000.00094
6000000.00095
6000000.00108
6000000.00063
6000000.00099
6000000.00082
6000000.0012
6000000.00077
6000000.00081
6000000.0008
6000000.00084
6000000.00079
6000000.00081
6000000.00088
6000000.00097
6000000.00074
6000000.00086
6000000.00108
6000000.00089
6000000.00104
6000000.00116
6000000.00071
6000000.00103
6000000.00093
6000000.00086
6000000.0007
6000000.00051
6000000.00095
6000000.00084
6000000.00085
6000000.00088
6000000.00082
6000000.00115
6000000.00071
6000000.00093
6000000.00067
6000000.0008
6000000.00059
6000000.00085
6000000.00098
6000000.00097
6000000.00094
6000000.00087
6000000.00089
6000000.00092
6000000.00078
6000000.00099
6000000.00115
6000000.00115
6000000.00074
6000000.00083
6000000.0008
6000000.00094
6000000.00093
6000000.0009
6000000.00095
6000000.00096
6000000.00096
6000000.00092
6000000.00087
6000000.00119
6000000.00135
6000000.00085
5999999.99905
5999999.99872
5999999.99887
5999999.99898
5999999.99879
5999999.9992
5999999.99886
5999999.9988
5999999.99873
5999999.99875
5999999.99888
5999999.99905
5999999.99903
5999999.99887
5999999.99865
5999999.99878
5999999.99878
5999999.99903
5999999.9989
5999999.99909
5999999.99882
5999999.99879
5999999.99916
5999999.99897
5999999.9988
5999999.99891
5999999.99935
5999999.99877
5999999.99894
5999999.99908
5999999.99903
5999999.9994
5999999.9991
5999999.99908
5999999.99886
5999999.99887
5999999.99914
5999999.99872
5999999.99863
5999999.9987
5999999.99906
5999999.99907
5999999.99885
5999999.99903
5999999.99893
5999999.99898
5999999.9993
5999999.99908
5999999.99884
5999999.999
5999999.99888
5999999.99868
5999999.99887
5999999.99865
5999999.99892
5999999.9989
5999999.99899
5999999.99898
5999999.9989
5999999.9989
5999999.99882
5999999.99901
5999999.99881
5999999.99887
5999999.9995
5999999.99929
5999999.99948
5999999.99979
5999999.99963