/*--------------------------------*- C++ -*----------------------------------*\
  =========                 |
  \\      /  F ield         | OpenFOAM: The Open Source CFD Toolbox
   \\    /   O peration     | Website:  https://openfoam.org
    \\  /    A nd           | Version:  6
     \\/     M anipulation  |
\*---------------------------------------------------------------------------*/
FoamFile
{
    version     2.0;
    format      ascii;
    class       volScalarField;
    location    "4.7e-05";
    object      p;
}
// * * * * * * * * * * * * * * * * * * * * * * * * * * * * * * * * * * * * * //

dimensions      [1 -1 -2 0 0 0 0];

internalField   nonuniform List<scalar> 
8192
(
6000000.00057
5999999.99938
6000000.0005
6000000.00077
6000000.00439
5999999.99772
6000000.00143
5999999.9997
6000000.00013
5999999.99981
6000000.00022
5999999.99982
6000000.00061
6000000.00144
6000000.00074
6000000.00054
6000000.00057
5999999.99842
5999999.999
6000000.00066
5999999.99853
5999999.99724
6000000.00177
5999999.99976
5999999.99957
6000000.00015
5999999.99838
5999999.99924
5999999.99823
5999999.99919
6000000.00023
6000000.00045
5999999.99666
5999999.99373
6000000.00772
6000000.0076
5999999.99906
6000000.00453
5999999.99942
5999999.99734
6000000.00322
5999999.99791
6000000.00015
5999999.99991
6000000.00031
6000000.00032
6000000.00004
5999999.99996
5999999.99918
6000000.00147
5999999.99722
6000000.00045
6000000.00295
5999999.9962
5999999.9968
6000000.00129
5999999.99997
6000000.0029
5999999.99991
6000000.00546
5999999.99672
5999999.99755
5999999.99714
6000000.00218
6000000.00056
6000000.002
5999999.99975
6000000.0037
5999999.99587
6000000.00307
5999999.99874
5999999.99701
6000000.00263
6000000.00278
6000000.00685
5999999.99673
5999999.99434
6000000.00646
6000000.00252
5999999.9954
5999999.99448
5999999.99217
6000000.00314
6000000.00583
6000000.00008
5999999.99909
6000000.00639
6000000.00479
5999999.99778
5999999.99716
5999999.99865
5999999.99829
5999999.99716
6000000.00405
5999999.997
6000000.00205
6000000.0016
5999999.99946
6000000.00376
5999999.99827
5999999.99966
5999999.99988
5999999.99973
6000000.00018
5999999.99906
6000000.00029
6000000.00012
6000000
5999999.99998
5999999.99998
6000000.00007
6000000.0002
5999999.99948
6000000.00063
5999999.99977
6000000.00114
6000000.0001
5999999.99883
6000000.00081
5999999.99923
5999999.99928
5999999.99892
6000000.00007
5999999.99916
6000000.00018
5999999.99955
6000000.00033
6000000.0003
6000000.00582
6000000.00053
5999999.99739
6000000.00059
5999999.99884
5999999.99948
5999999.99997
5999999.99979
6000000.00056
6000000.00089
5999999.9985
6000000.00372
6000000.0008
6000000.0032
6000000.0044
5999999.99673
5999999.99666
5999999.99815
6000000.0021
6000000.00231
5999999.99989
5999999.99987
5999999.99887
6000000.00064
5999999.99492
6000000.00081
5999999.99673
5999999.99661
6000000.00152
6000000.0008
5999999.99853
5999999.99911
5999999.99979
5999999.9996
6000000.0002
6000000.00049
5999999.99967
6000000.00228
6000000.00019
6000000.0012
5999999.99809
6000000.0006
5999999.99757
6000000.00296
6000000.00207
6000000.00277
6000000.00193
6000000.00412
6000000.00241
6000000.00064
5999999.99435
6000000.00274
6000000.00147
5999999.99809
6000000.00077
5999999.99796
6000000.0027
6000000.00119
6000000.00211
5999999.99358
5999999.99229
6000000.00184
6000000.00634
6000000.0042
5999999.99927
5999999.99956
6000000.00085
6000000.00022
5999999.99992
6000000.00001
5999999.99997
6000000.00001
6000000.00015
6000000.00002
6000000.00003
5999999.99767
5999999.99761
6000000.00281
5999999.99924
5999999.99998
6000000.00004
5999999.99998
6000000.00011
6000000.00026
6000000.00029
5999999.99942
5999999.99994
6000000.00003
5999999.9998
5999999.99998
5999999.99995
5999999.99603
6000000.0007
6000000.00159
5999999.99684
6000000.00091
6000000.00698
5999999.99402
5999999.9968
6000000.00532
6000000.00864
5999999.99172
5999999.99538
6000000.00158
6000000.00389
5999999.99576
6000000.00304
6000000.00023
6000000.00462
5999999.99823
6000000.00718
6000000.00366
5999999.99177
6000000.00043
6000000.00617
5999999.99816
6000000.00531
5999999.99412
5999999.99862
6000000.00165
6000000.0029
6000000.00367
6000000.00057
6000000.00221
6000000.00082
5999999.99895
5999999.99937
5999999.99918
5999999.99987
5999999.99883
6000000.00053
5999999.99811
6000000.00229
5999999.99849
5999999.99972
5999999.99928
5999999.99975
5999999.99992
5999999.99989
6000000.00118
6000000.00162
5999999.99681
6000000.00041
6000000.00122
5999999.99999
6000000.00265
5999999.99503
5999999.99723
6000000.00522
6000000.00115
5999999.99624
5999999.99506
5999999.99936
5999999.99462
5999999.99826
5999999.99476
6000000.00157
6000000.00504
5999999.99624
6000000.00057
5999999.99909
6000000.00135
5999999.99958
5999999.99925
6000000.00167
5999999.99762
6000000.00172
6000000.00009
6000000.00001
6000000.00016
6000000.00001
6000000.00001
6000000.00002
6000000.00027
5999999.99889
6000000.00143
5999999.99705
5999999.99987
5999999.99861
6000000.00148
6000000.00551
5999999.99844
5999999.99382
6000000.00277
6000000.00632
5999999.99787
6000000.00351
5999999.99827
6000000.00651
5999999.9965
5999999.9969
5999999.99648
6000000.00209
6000000.00203
5999999.99563
6000000.00182
6000000.00092
6000000.00021
6000000.00084
5999999.99883
6000000.00028
6000000.00054
5999999.9983
6000000.0026
6000000.00229
6000000.001
6000000.0002
5999999.99965
5999999.9972
5999999.99761
6000000.00051
6000000.00085
5999999.99979
5999999.99854
5999999.99793
6000000.00085
5999999.99653
6000000.00078
5999999.99671
5999999.99396
5999999.99664
6000000.00335
5999999.99761
5999999.99624
6000000.0073
5999999.99874
6000000.0029
6000000.00005
5999999.9969
6000000.0039
5999999.99583
6000000.00346
5999999.99977
5999999.9995
6000000.0008
5999999.99986
6000000.00042
6000000.00009
6000000.00058
6000000.00165
5999999.99823
6000000.00295
6000000.00106
5999999.99764
6000000.00183
5999999.99989
5999999.99988
6000000.00395
5999999.99828
6000000.00351
6000000.00307
5999999.99372
5999999.9928
5999999.99564
5999999.99882
6000000.00097
6000000.00193
6000000.00261
5999999.99464
5999999.99166
6000000.00157
5999999.99617
5999999.99867
6000000.00529
5999999.99839
5999999.99884
6000000.00194
5999999.99681
5999999.99797
6000000.00653
5999999.996
5999999.9991
5999999.99379
6000000.00163
6000000.00519
5999999.99983
5999999.99802
5999999.99123
6000000.00378
5999999.99938
6000000.00425
5999999.99852
5999999.99696
6000000.00282
5999999.99488
5999999.99353
6000000.00023
6000000.00294
5999999.99815
5999999.99794
5999999.99759
6000000.00182
6000000.00198
5999999.99789
6000000.00179
5999999.99856
5999999.99931
6000000.00087
5999999.99934
5999999.9998
6000000.00003
6000000.00033
6000000.00114
5999999.99687
6000000.00123
6000000.00029
5999999.99953
5999999.99719
6000000.00148
6000000.00054
5999999.99885
6000000.00128
6000000.0012
5999999.99796
5999999.99932
6000000.00029
5999999.9995
5999999.99708
5999999.99701
5999999.99876
5999999.99591
6000000.00229
6000000.00202
6000000.00042
6000000.00041
5999999.99929
6000000.00265
5999999.99805
6000000.00294
6000000.0021
5999999.99535
6000000.00451
6000000.00134
6000000.00048
6000000.00076
5999999.99844
6000000.0021
5999999.99982
5999999.99927
6000000.00093
6000000.00019
5999999.99957
5999999.99764
6000000.0037
5999999.99713
5999999.99959
6000000.00154
5999999.99714
6000000.0033
5999999.9966
6000000.00225
5999999.99902
5999999.99956
5999999.99755
6000000.00262
6000000.00637
5999999.99808
5999999.99795
6000000.00081
6000000.00256
5999999.99846
5999999.99768
6000000.00523
5999999.99832
5999999.99985
5999999.99975
6000000.00069
6000000.00303
5999999.99757
6000000.0041
5999999.99846
5999999.99863
6000000.00173
6000000.00013
5999999.99992
6000000.00307
6000000.00073
6000000.00256
5999999.99901
5999999.99894
5999999.99949
5999999.9972
5999999.99503
6000000.00248
6000000.00096
5999999.9987
5999999.9996
5999999.999
6000000.00005
5999999.99851
6000000.00066
5999999.99939
6000000.00021
5999999.9998
5999999.99998
6000000.00005
5999999.99892
6000000.00059
6000000.00009
5999999.99988
5999999.99989
5999999.9998
6000000.0001
6000000.00014
5999999.99984
5999999.99989
5999999.99982
6000000.00002
5999999.99981
5999999.99992
5999999.99975
5999999.99964
6000000.00001
6000000
5999999.99981
5999999.99998
6000000.00001
5999999.99991
5999999.99867
6000000.00264
5999999.99822
5999999.99933
5999999.99926
5999999.99946
6000000.00003
5999999.99998
6000000.00001
5999999.99996
6000000.00103
6000000.00039
6000000.00002
6000000.0001
5999999.99949
5999999.99763
6000000.00266
6000000.00258
5999999.9988
5999999.99396
5999999.99276
6000000.00174
6000000.00543
6000000.00194
6000000.0041
5999999.99671
6000000.00453
5999999.99371
6000000.00086
5999999.99645
6000000.00044
6000000.0001
6000000.00258
5999999.99907
6000000.00165
5999999.9975
6000000.00153
5999999.99985
6000000.00003
6000000.00026
6000000.00025
6000000.00002
5999999.9996
6000000.00242
5999999.99976
6000000.00001
6000000.00002
5999999.99992
5999999.99989
6000000.00006
6000000.00035
5999999.99923
5999999.99909
5999999.99909
5999999.99899
5999999.99978
5999999.99864
5999999.9973
6000000.00151
6000000.00076
6000000.00078
6000000.00201
5999999.99767
5999999.99721
6000000.00766
6000000.00351
6000000.00114
6000000.00332
5999999.99737
5999999.9991
6000000.00067
5999999.99966
6000000.00056
6000000.00006
6000000.00055
6000000.00027
6000000.00212
5999999.99931
5999999.99844
6000000.00029
5999999.99962
6000000.00005
6000000.00526
5999999.99968
5999999.99772
6000000.00313
6000000.00176
6000000.0007
6000000.00094
5999999.99705
5999999.99807
6000000.00477
6000000.00484
6000000.00273
5999999.99743
5999999.9977
6000000.00263
5999999.99978
5999999.99828
5999999.99735
6000000.00346
6000000.00242
6000000
6000000.00151
5999999.99838
6000000.00111
5999999.99954
6000000.00066
6000000.00067
6000000.00051
6000000.00088
5999999.99941
5999999.99902
6000000.00152
6000000.0013
5999999.99355
5999999.99498
6000000.00357
6000000.00124
5999999.99955
5999999.99846
6000000.00275
5999999.99741
6000000.00085
6000000.00151
6000000.00261
5999999.99334
6000000.00287
6000000.00175
6000000.00515
5999999.9953
5999999.99758
6000000.00142
6000000.00087
5999999.99458
5999999.99832
6000000.00393
6000000.00583
5999999.99892
6000000.00181
6000000.00129
6000000.00445
5999999.99718
6000000.00123
6000000.00171
5999999.99589
6000000.00329
6000000.00286
6000000.00564
6000000.00882
5999999.99518
5999999.99783
6000000.00404
6000000.00671
5999999.99433
5999999.99433
6000000.0024
5999999.99772
6000000
6000000.0007
5999999.99669
6000000.00223
5999999.99742
6000000.00097
5999999.99665
5999999.9949
6000000.00329
6000000.00337
5999999.99884
6000000.0034
6000000.00147
6000000.00042
5999999.99958
5999999.99929
5999999.99786
6000000.00388
6000000.00769
5999999.99641
5999999.99874
5999999.99212
6000000.00511
6000000.00659
5999999.99567
5999999.9971
5999999.99599
5999999.99755
5999999.99634
6000000.00054
5999999.99931
6000000.00106
5999999.99932
5999999.99954
6000000.00301
5999999.99484
5999999.99498
5999999.99645
6000000.00614
6000000.00015
5999999.99912
6000000.00097
5999999.99961
6000000.00231
5999999.9993
6000000.00157
6000000.00613
5999999.99617
5999999.99482
5999999.99335
6000000.00268
6000000.00252
5999999.99245
5999999.99728
5999999.99671
6000000.00139
5999999.99857
5999999.99389
6000000.00438
6000000.004
6000000.00001
6000000.00089
5999999.99999
6000000.00032
6000000.00042
6000000.00021
6000000.00001
5999999.99998
5999999.99991
5999999.99988
6000000.00015
6000000.00012
5999999.99892
6000000.00174
6000000.00558
6000000.00008
6000000.00063
6000000.00243
5999999.99924
6000000.00285
6000000.00084
5999999.99974
5999999.99992
5999999.99978
6000000.00157
5999999.99764
5999999.9973
6000000.0012
5999999.99692
6000000.00088
5999999.99901
5999999.99968
5999999.99957
5999999.99997
5999999.99985
6000000.00003
6000000.00013
5999999.99755
6000000.00295
5999999.99879
5999999.99928
5999999.99993
5999999.99735
6000000.00094
6000000.00084
6000000.00004
6000000.00035
5999999.9989
6000000.0034
5999999.99986
6000000.00003
6000000.00055
5999999.99954
6000000.00041
5999999.99807
6000000.00505
6000000.00321
5999999.99583
5999999.99825
6000000.00227
5999999.99804
6000000.00342
5999999.9993
6000000
6000000.00006
5999999.99964
6000000.00016
5999999.99943
6000000.00107
5999999.99742
6000000.00185
6000000.0009
6000000.00082
5999999.9997
6000000.00028
5999999.99702
6000000.00705
6000000.00321
5999999.99446
6000000.00142
6000000.00313
6000000.0043
5999999.99653
5999999.99498
6000000.00326
5999999.99873
5999999.99954
6000000.00011
5999999.99994
5999999.99992
5999999.99996
6000000.00002
5999999.99989
5999999.99993
5999999.99988
6000000.00019
5999999.99869
6000000.00187
5999999.99742
5999999.99949
6000000.0013
5999999.99382
6000000.00482
6000000.00523
6000000.00168
5999999.99912
6000000.00337
6000000.00517
5999999.9973
5999999.99605
6000000.00348
5999999.9995
6000000.00337
6000000.00521
6000000.00057
6000000.00596
6000000.00004
5999999.99979
6000000.00095
6000000.00068
5999999.9999
5999999.99999
6000000.0034
5999999.99843
6000000.00101
6000000.00188
6000000.00315
6000000.00243
5999999.99418
6000000.00148
6000000.00054
6000000.00033
5999999.99913
6000000.00541
6000000.00295
5999999.99806
6000000.00266
6000000.00019
5999999.99963
6000000.00068
5999999.99933
6000000.00196
5999999.99332
6000000.0029
6000000.00166
5999999.99977
5999999.99917
6000000.00006
6000000.00091
5999999.99997
6000000.00003
6000000.00002
6000000
6000000.00001
5999999.99989
6000000.00001
5999999.99981
6000000
6000000.00014
5999999.99923
6000000.00108
5999999.99984
5999999.9998
5999999.99978
6000000.00007
5999999.99857
6000000.00013
6000000.00035
6000000.00068
5999999.9981
5999999.99823
6000000.001
6000000.00133
5999999.99907
6000000.00098
5999999.99851
6000000.00261
6000000.0021
6000000.00049
6000000.00032
5999999.99955
5999999.99883
6000000.00222
5999999.99524
6000000.00673
5999999.99674
5999999.99499
6000000.00425
6000000.00419
6000000.00527
6000000.00004
6000000.00015
5999999.99534
5999999.99484
5999999.99578
6000000.00156
5999999.99767
6000000.00509
5999999.99938
5999999.99775
6000000.00072
5999999.99766
6000000.00157
5999999.99801
6000000.00473
5999999.99372
5999999.9961
6000000.00472
5999999.99537
5999999.99687
5999999.99831
6000000.00151
6000000.00138
6000000.00101
6000000.00002
6000000.00101
6000000.00024
6000000.00223
5999999.99619
6000000.00167
6000000.0009
5999999.99987
5999999.99795
5999999.9998
5999999.99978
5999999.99794
5999999.99888
6000000.0011
5999999.99995
6000000.00131
6000000.00186
5999999.9979
5999999.9989
6000000.00405
5999999.99944
5999999.99984
5999999.99996
6000000.00001
6000000.00001
6000000.00014
6000000.00002
5999999.99994
6000000.00054
6000000.0003
5999999.99655
6000000.00055
5999999.99996
5999999.99982
6000000.00003
6000000.00027
5999999.99812
6000000.00306
6000000.00198
5999999.99504
6000000.00674
5999999.99383
5999999.99267
6000000.00299
6000000.00591
5999999.99249
5999999.99766
5999999.99755
5999999.99956
6000000.00186
5999999.99821
6000000.00081
5999999.99656
5999999.99723
6000000.00014
5999999.99795
6000000.0027
5999999.99761
6000000.00176
6000000.00308
5999999.99533
5999999.99606
5999999.99488
5999999.99962
6000000.00465
6000000.00176
5999999.99621
5999999.99304
6000000.00414
6000000.0032
5999999.99451
5999999.9988
6000000.00534
6000000.00419
5999999.99751
5999999.99815
6000000.00379
5999999.99975
6000000.00002
6000000.00001
5999999.99997
6000000.00058
6000000.00149
5999999.99855
5999999.99834
5999999.99904
6000000.00009
6000000.00121
5999999.99975
6000000.00046
5999999.99849
5999999.9979
6000000.0014
6000000.00035
6000000.00007
6000000.00002
6000000
5999999.99992
5999999.99996
6000000.00016
5999999.99945
5999999.99866
6000000.00019
6000000.00253
5999999.9979
5999999.99986
5999999.99994
5999999.99529
6000000.00092
6000000.0006
6000000.00365
6000000.0016
5999999.9998
6000000.00102
6000000.00042
5999999.99782
6000000.00322
5999999.99709
6000000.00264
6000000.00117
6000000.00434
5999999.99953
5999999.99967
6000000.00598
6000000.00242
6000000.00297
6000000.00191
5999999.99622
5999999.99895
6000000.00238
5999999.99998
5999999.99722
5999999.99759
6000000.00196
5999999.99712
5999999.99927
5999999.99726
6000000.00026
6000000.00216
5999999.99875
5999999.99879
5999999.9987
5999999.99984
5999999.99985
6000000.00096
6000000.00028
6000000.00039
5999999.99922
6000000.0014
6000000.00154
5999999.99785
6000000.00012
6000000.00011
6000000.00002
6000000.00011
6000000.00007
6000000.00071
6000000.00113
5999999.99835
6000000.00229
6000000.00153
5999999.99664
6000000.00444
5999999.99537
5999999.99875
6000000.00268
6000000.00659
6000000.00311
6000000.00204
6000000.00156
5999999.99311
5999999.99745
5999999.99844
5999999.99936
6000000.00298
6000000.00507
5999999.99352
5999999.99705
5999999.99468
6000000.00592
6000000.00278
6000000.00275
5999999.9989
6000000.00072
6000000.00078
6000000.00163
5999999.99952
5999999.99906
5999999.99974
6000000.00003
5999999.99998
6000000.00073
5999999.9992
6000000.00091
5999999.99954
6000000.00008
5999999.99881
5999999.99615
6000000.00285
6000000.00092
5999999.99584
5999999.99517
6000000.00603
5999999.99807
5999999.9956
6000000.00176
6000000.00642
5999999.99522
6000000.00394
5999999.99895
5999999.99845
6000000.00486
5999999.99947
6000000.00015
5999999.99999
6000000
6000000.00007
6000000.00001
6000000.00007
6000000.00002
6000000.00007
6000000.0002
6000000.00025
6000000.00003
6000000.00005
5999999.99963
6000000.0008
6000000.00151
5999999.99579
6000000.00336
6000000.00512
5999999.99858
6000000.00173
6000000.00183
6000000.00202
5999999.99946
6000000.00041
5999999.99355
6000000.00108
5999999.99925
6000000.00145
6000000.00221
5999999.99901
5999999.99872
5999999.99927
5999999.99919
6000000.00021
5999999.99879
6000000.00107
6000000.00205
5999999.99847
5999999.99946
5999999.99917
6000000.00083
5999999.99997
6000000
5999999.99995
5999999.99941
6000000.0006
5999999.99932
5999999.9978
6000000.00329
5999999.99679
6000000.00166
5999999.99916
5999999.99946
5999999.99974
5999999.99927
6000000.00195
5999999.99539
6000000.00202
5999999.99939
5999999.99943
6000000.00002
5999999.99944
5999999.99987
5999999.99982
6000000.0008
5999999.99881
5999999.99934
5999999.99995
5999999.99993
5999999.99992
5999999.99998
6000000.00009
5999999.99993
5999999.99979
6000000
5999999.99989
5999999.9999
6000000.00001
5999999.9997
6000000.00115
5999999.99978
6000000.00012
6000000.00016
6000000.00118
5999999.99849
6000000.00177
5999999.99678
6000000.00218
6000000.00137
6000000.002
6000000.00245
5999999.99688
5999999.99943
5999999.99828
6000000.00206
5999999.99915
5999999.99763
6000000.00117
5999999.99862
5999999.99934
5999999.99973
6000000.00027
6000000.0038
6000000.00149
6000000.00333
5999999.99897
6000000.0003
6000000.0022
5999999.99523
6000000.00113
5999999.99665
6000000.00467
6000000.00227
5999999.99469
5999999.99506
5999999.99525
6000000.00547
6000000.00196
6000000.0059
5999999.99697
5999999.99755
6000000.00086
5999999.99471
5999999.99486
5999999.99728
5999999.99817
6000000.00178
5999999.99551
5999999.99728
5999999.9929
5999999.99998
5999999.9951
5999999.99789
5999999.99703
5999999.99691
5999999.99605
5999999.99515
6000000.00381
6000000.00099
6000000.00108
5999999.99515
6000000.0018
5999999.99998
5999999.99986
6000000.00067
5999999.99915
6000000.00007
5999999.9965
6000000.0035
5999999.99439
5999999.99458
6000000.00201
5999999.99457
5999999.99509
6000000.00612
5999999.99527
5999999.99397
6000000.00083
6000000.00173
5999999.99966
6000000.00092
6000000.00024
6000000.00016
5999999.9999
6000000.00057
5999999.99952
6000000.00044
5999999.99958
6000000.00016
6000000.00014
5999999.99992
5999999.99993
6000000.00003
6000000.001
5999999.99938
5999999.99954
6000000.00127
5999999.99994
5999999.99993
5999999.99981
5999999.99953
5999999.99905
6000000.00027
6000000.00001
6000000.00009
5999999.99989
5999999.99948
6000000.00046
6000000.00165
5999999.99883
6000000.00099
6000000.00235
6000000.00244
5999999.99661
5999999.99773
6000000.00261
5999999.99955
6000000.00095
6000000.00059
5999999.99725
6000000.00241
6000000.00195
6000000.0003
5999999.99848
6000000.00005
5999999.99809
6000000.00289
6000000.00037
6000000.00119
5999999.99894
5999999.99811
6000000.00542
6000000.00537
5999999.99297
5999999.99715
6000000.00186
6000000.00151
5999999.99884
6000000.00124
6000000.00002
6000000.00307
5999999.99908
6000000.00184
5999999.99967
5999999.99974
6000000.00002
6000000.00004
5999999.99996
5999999.99998
5999999.99998
6000000.00001
6000000.00004
6000000.00014
6000000
6000000
6000000.00001
5999999.99999
6000000.00016
5999999.99997
6000000.00001
5999999.99993
5999999.99996
6000000.00013
6000000.00016
5999999.99995
6000000.00014
5999999.99999
6000000
5999999.9999
6000000.00018
5999999.99995
6000000.00021
5999999.99973
5999999.99953
5999999.99939
6000000.00012
5999999.99992
6000000.00219
5999999.99945
5999999.99969
5999999.99986
6000000.0001
6000000.00003
6000000.00013
5999999.99993
6000000.00001
6000000
5999999.99998
5999999.99926
6000000.00063
5999999.99889
6000000.00286
5999999.99968
5999999.9988
6000000.00149
5999999.99877
6000000.00316
6000000.0038
5999999.99897
5999999.99976
6000000.0063
6000000.00085
6000000.0007
6000000.00068
5999999.99973
6000000.00004
6000000.00007
6000000.00026
6000000.00008
6000000.00007
6000000.00018
5999999.99941
6000000.00089
6000000.00039
6000000.00027
6000000.00019
5999999.99989
6000000.00002
5999999.99992
6000000.00002
6000000
6000000.00079
5999999.99849
5999999.99758
6000000.00287
5999999.99788
6000000.0027
5999999.99704
5999999.99917
5999999.99994
5999999.9974
5999999.99947
6000000.00325
5999999.99566
5999999.9943
6000000.00116
5999999.9939
5999999.99343
6000000.00134
5999999.99719
5999999.99922
5999999.99606
6000000.0021
6000000.00195
5999999.99721
6000000.00405
5999999.99801
5999999.99806
6000000.00211
6000000.00193
5999999.99998
5999999.99949
5999999.99973
6000000.00004
5999999.99992
5999999.99962
6000000.00139
5999999.99949
6000000.00164
5999999.99855
5999999.99848
6000000.00022
5999999.99889
5999999.99944
5999999.99817
5999999.99894
5999999.99892
5999999.99994
5999999.99889
6000000.00374
5999999.99953
5999999.99852
5999999.99976
5999999.99998
5999999.99996
5999999.99983
5999999.99984
6000000.00022
5999999.99998
5999999.99996
6000000.00014
6000000.00009
5999999.99998
6000000.00007
5999999.99998
6000000.00017
6000000.00023
6000000.00057
5999999.99796
5999999.99871
6000000.00088
6000000.00008
5999999.99998
5999999.99998
6000000.00001
5999999.99989
5999999.99981
6000000.00008
5999999.99997
5999999.9992
6000000.00061
5999999.99948
6000000.00099
5999999.99944
6000000.00009
6000000.00152
5999999.99953
6000000.00029
5999999.9999
6000000.00005
5999999.99991
6000000
5999999.99983
5999999.99991
5999999.99998
5999999.99973
5999999.99889
6000000.00022
5999999.99904
6000000.00249
5999999.99862
6000000.00072
6000000.00029
5999999.99986
6000000.00012
6000000.00096
5999999.99929
5999999.99566
6000000.00297
6000000.00018
6000000.00011
6000000.00046
6000000.00128
6000000.0007
5999999.99793
6000000.00346
6000000.00325
6000000.00013
5999999.99824
6000000.00244
6000000.0017
5999999.99848
6000000.00463
6000000.00033
6000000.00253
5999999.99691
5999999.99767
6000000.001
5999999.99912
5999999.99987
5999999.99711
6000000.00352
6000000.0007
5999999.9992
6000000.00023
5999999.99844
6000000.00272
5999999.99855
6000000.00166
5999999.99547
6000000.00532
6000000.00433
5999999.99806
6000000.00129
5999999.99355
5999999.99293
6000000.00342
6000000.00264
6000000.00489
5999999.99871
5999999.99595
6000000.00431
5999999.99648
5999999.99865
5999999.99889
5999999.9985
6000000.00074
5999999.99939
6000000.00019
5999999.99971
5999999.99963
6000000.00025
5999999.99803
6000000.00163
5999999.99968
5999999.99926
6000000.00174
5999999.99859
6000000.00104
5999999.9965
6000000.00019
5999999.99999
5999999.99964
5999999.99841
5999999.99844
6000000.00148
6000000.00124
5999999.99939
6000000.00612
6000000.00241
5999999.9952
6000000.00263
5999999.99869
6000000.0061
6000000.00446
5999999.99731
5999999.99584
5999999.99882
6000000.00649
6000000.00197
5999999.99741
5999999.99665
5999999.99534
6000000.00291
5999999.99685
5999999.99493
5999999.99828
5999999.99467
6000000.00409
5999999.99734
5999999.99719
5999999.99877
6000000.00164
5999999.99761
5999999.99789
6000000.00148
6000000.00111
5999999.9968
5999999.99754
5999999.996
5999999.9961
5999999.99718
5999999.99825
6000000.00068
5999999.99373
5999999.99481
6000000.00124
6000000.00028
5999999.99562
5999999.99604
5999999.99514
5999999.99417
6000000.00428
5999999.99731
5999999.99258
5999999.99977
5999999.99568
6000000.00199
6000000.00527
5999999.99253
5999999.99446
5999999.99764
6000000.00544
6000000.00118
5999999.99795
6000000.00336
6000000.00488
5999999.99977
6000000.00608
5999999.9962
5999999.99364
6000000.00369
6000000.00094
5999999.99941
5999999.99469
5999999.99637
6000000.00272
5999999.99597
5999999.99837
6000000.00214
5999999.99898
6000000.00291
6000000.00718
6000000.00325
5999999.99871
5999999.99528
5999999.99723
6000000.00583
6000000.0022
5999999.9956
5999999.9971
6000000.00088
6000000.00623
6000000.00098
5999999.99896
5999999.99981
6000000.00178
5999999.9985
5999999.99911
6000000.00377
6000000.00178
5999999.99696
6000000.00268
5999999.99661
5999999.99963
5999999.99741
6000000.00046
6000000.00181
5999999.99403
6000000
6000000.0011
5999999.99417
5999999.9974
6000000.00299
5999999.99814
5999999.99812
6000000.00274
5999999.99841
5999999.99658
5999999.9956
5999999.9982
5999999.99616
5999999.99926
5999999.99795
6000000.00684
5999999.99763
6000000.00039
6000000.00536
5999999.99856
6000000.00193
6000000.00001
6000000.00864
5999999.99706
6000000.00075
6000000.00634
6000000.00696
5999999.99892
5999999.99785
6000000.01009
6000000.00792
6000000.00617
5999999.99807
5999999.9979
6000000.00805
6000000.0085
6000000.00177
6000000.00673
6000000.00236
5999999.99486
6000000.00678
6000000.00799
6000000.00012
5999999.99719
6000000.00753
6000000.00261
5999999.99391
6000000.0024
6000000.00216
6000000.00916
6000000.00778
5999999.99764
6000000.00219
6000000.00723
5999999.99617
5999999.99929
6000000.0065
6000000.0093
6000000.00048
6000000.0063
6000000.00562
6000000.00488
5999999.99791
6000000.00116
6000000.00844
6000000.00951
6000000.01014
6000000.00301
6000000.00289
6000000.0064
6000000.01038
5999999.99969
6000000.00287
6000000.00579
5999999.99656
6000000.00576
6000000.00525
6000000.00984
6000000.00421
6000000.00744
6000000.0058
5999999.9935
6000000.00686
6000000.00221
5999999.99841
6000000.00877
5999999.99884
5999999.99984
5999999.99873
6000000.00048
5999999.99825
5999999.99969
5999999.99888
5999999.99955
5999999.99929
5999999.99947
5999999.99722
5999999.99779
5999999.99961
5999999.9982
6000000.00021
5999999.99822
5999999.99901
5999999.99824
6000000.00015
5999999.99799
5999999.9974
5999999.99865
5999999.99971
5999999.99866
5999999.9988
5999999.99963
5999999.99764
5999999.99849
5999999.99935
5999999.99572
5999999.9983
6000000.00026
5999999.99916
5999999.99662
5999999.99944
5999999.99751
5999999.99988
5999999.99892
5999999.99872
5999999.99681
5999999.99908
6000000.00006
5999999.99789
5999999.99939
5999999.99966
5999999.99868
5999999.9988
5999999.99919
5999999.99668
5999999.99683
5999999.99934
5999999.99989
6000000.00024
6000000.00066
5999999.99828
5999999.99903
5999999.99795
5999999.99825
5999999.99835
5999999.99872
5999999.99962
6000000.00045
6000000.00207
5999999.99833
5999999.99942
5999999.9994
5999999.99983
5999999.99965
6000000.00061
5999999.99978
5999999.99952
6000000.00036
5999999.99973
5999999.99973
5999999.99972
5999999.99975
6000000.00054
6000000
5999999.99977
5999999.99965
6000000.00025
6000000.00037
5999999.99983
6000000.00022
5999999.99985
6000000.00036
5999999.99993
5999999.99982
6000000.00019
5999999.99993
6000000.00043
5999999.99978
6000000.00003
5999999.99948
6000000.00031
6000000.00044
6000000.00027
6000000.00051
5999999.99986
6000000.0004
6000000.0005
5999999.99961
6000000.00015
5999999.99988
6000000.00035
6000000.0001
5999999.99964
6000000.00042
6000000.00018
6000000.00046
6000000.00028
5999999.99952
5999999.99979
5999999.99974
6000000.00012
6000000.00009
6000000.00035
6000000.00044
5999999.9997
6000000.00001
6000000.00025
5999999.99988
6000000.00027
6000000.00017
6000000.00029
6000000.00043
5999999.99973
6000000.0006
6000000.00067
6000000.00094
6000000.00095
6000000.00109
6000000.00063
6000000.00097
6000000.00081
6000000.00122
6000000.00077
6000000.00082
6000000.0008
6000000.00084
6000000.00076
6000000.00081
6000000.00086
6000000.00098
6000000.00075
6000000.00087
6000000.00107
6000000.00089
6000000.00103
6000000.00116
6000000.0007
6000000.00101
6000000.00092
6000000.00085
6000000.00068
6000000.0005
6000000.00094
6000000.00084
6000000.00083
6000000.00089
6000000.00083
6000000.00115
6000000.0007
6000000.00095
6000000.00068
6000000.00082
6000000.0006
6000000.00085
6000000.00097
6000000.00096
6000000.00094
6000000.00088
6000000.00088
6000000.00091
6000000.00079
6000000.00098
6000000.00113
6000000.00114
6000000.00073
6000000.00083
6000000.00078
6000000.00095
6000000.00094
6000000.00092
6000000.00093
6000000.00097
6000000.00095
6000000.00094
6000000.00087
6000000.00119
6000000.00134
6000000.00084
5999999.99905
5999999.99874
5999999.99888
5999999.999
5999999.99878
5999999.99922
5999999.99886
5999999.99881
5999999.99872
5999999.99876
5999999.99888
5999999.99906
5999999.99904
5999999.99891
5999999.99867
5999999.99879
5999999.99878
5999999.99904
5999999.99889
5999999.99911
5999999.99882
5999999.99879
5999999.99915
5999999.999
5999999.99881
5999999.9989
5999999.99936
5999999.99878
5999999.99895
5999999.99908
5999999.99903
5999999.99941
5999999.99911
5999999.99909
5999999.99886
5999999.99888
5999999.99914
5999999.99875
5999999.99861
5999999.99869
5999999.99906
5999999.99906
5999999.99884
5999999.99904
5999999.99896
5999999.99898
5999999.99932
5999999.9991
5999999.99885
5999999.999
5999999.99888
5999999.9987
5999999.99888
5999999.99865
5999999.99894
5999999.9989
5999999.99902
5999999.99898
5999999.9989
5999999.9989
5999999.99883
5999999.99902
5999999.99886
5999999.99886
5999999.99951
5999999.99929
5999999.99947
5999999.99978
5999999.99968