/*--------------------------------*- C++ -*----------------------------------*\
  =========                 |
  \\      /  F ield         | OpenFOAM: The Open Source CFD Toolbox
   \\    /   O peration     | Website:  https://openfoam.org
    \\  /    A nd           | Version:  6
     \\/     M anipulation  |
\*---------------------------------------------------------------------------*/
FoamFile
{
    version     2.0;
    format      ascii;
    class       volVectorField;
    location    "4.7e-05";
    object      U;
}
// * * * * * * * * * * * * * * * * * * * * * * * * * * * * * * * * * * * * * //

dimensions      [0 1 -1 0 0 0 0];

internalField   nonuniform List<vector> 
8192
(
(-88.322 0 -2.77977858672e-10)
(-88.3219999996 0 -7.18426067515e-11)
(-88.3220000001 0 -6.79071708556e-11)
(-88.3220000003 0 -2.48911119454e-10)
(-88.3219999995 0 -6.19409347823e-11)
(-88.3219999997 0 1.4194650425e-11)
(-88.3220000003 0 -1.9977486497e-12)
(-88.322 0 9.03022815132e-11)
(-88.322 0 -2.48148365806e-10)
(-88.322 0 -5.62848185085e-10)
(-88.3219999999 0 -6.86855894854e-10)
(-88.322 0 3.5348413087e-10)
(-88.3220000002 0 6.47647596181e-10)
(-88.322 0 -7.20071183949e-10)
(-88.3219999998 0 -6.12585327703e-10)
(-88.3219999999 0 3.4333950241e-10)
(-88.3219999998 0 2.67024629058e-10)
(-88.3219999999 0 6.12261587174e-10)
(-88.3220000002 0 -4.15999640495e-10)
(-88.322 0 -5.412282504e-10)
(-88.3219999997 0 2.59421728255e-10)
(-88.3220000003 0 3.72800963194e-10)
(-88.3220000003 0 -5.68209128623e-10)
(-88.3219999998 0 -5.48365220333e-10)
(-88.322 0 1.59296798859e-10)
(-88.3219999999 0 1.66264185886e-10)
(-88.3219999999 0 2.07425594355e-10)
(-88.3219999999 0 1.74900836385e-10)
(-88.3220000002 0 2.87122038975e-10)
(-88.3220000002 0 -1.45335617797e-10)
(-88.3219999999 0 2.03530378427e-10)
(-88.3219999997 0 -4.01470052705e-11)
(-88.321999999 0 1.15837223408e-10)
(-88.3220000017 0 5.19361841859e-10)
(-88.3220000025 0 -7.93268313394e-10)
(-88.3219999988 0 -6.08798075228e-10)
(-88.3219999996 0 -1.74826124106e-11)
(-88.3219999996 0 -5.44180306787e-10)
(-88.3219999986 0 1.71416687264e-10)
(-88.3220000006 0 1.61390068707e-10)
(-88.3220000001 0 -4.35827710247e-11)
(-88.3219999998 0 5.24899926395e-11)
(-88.3220000001 0 -1.26996558806e-11)
(-88.322 0 -1.47169209626e-11)
(-88.322 0 -5.50152295828e-11)
(-88.322 0 -3.39006185521e-11)
(-88.322 0 -1.80762479844e-11)
(-88.322 0 -1.78518776083e-11)
(-88.322 0 2.28585307002e-11)
(-88.3219999998 0 -8.33819641933e-11)
(-88.3219999999 0 1.09552402081e-10)
(-88.3220000005 0 -4.967510936e-11)
(-88.3219999995 0 -1.9688278267e-10)
(-88.3219999994 0 3.18741230422e-10)
(-88.3220000011 0 1.75871185434e-10)
(-88.3220000006 0 -2.1309006014e-10)
(-88.322 0 -3.57710691804e-11)
(-88.3219999998 0 -1.64626412717e-10)
(-88.3220000002 0 -3.87349118091e-11)
(-88.3219999992 0 -2.87166933958e-10)
(-88.3219999985 0 3.25670345719e-10)
(-88.3219999998 0 3.81656545377e-10)
(-88.3220000008 0 3.53849313191e-10)
(-88.3220000014 0 -7.95519060415e-12)
(-88.322 0 -3.01234174265e-10)
(-88.3219999999 0 -8.3165328144e-11)
(-88.3220000001 0 1.10763605445e-10)
(-88.3219999997 0 9.55469401939e-12)
(-88.322 0 2.22627631127e-10)
(-88.3220000002 0 -1.14218630187e-10)
(-88.3219999995 0 4.30039651056e-11)
(-88.3220000005 0 5.39537497138e-12)
(-88.3220000013 0 -5.14079341938e-12)
(-88.3220000008 0 -5.6637891753e-11)
(-88.3219999983 0 6.31145013616e-11)
(-88.3219999973 0 -2.24426539067e-10)
(-88.3220000019 0 -2.29832803464e-11)
(-88.3220000024 0 -1.73691511243e-10)
(-88.321999998 0 -2.93907813897e-10)
(-88.3219999984 0 2.83729123143e-10)
(-88.3219999996 0 2.09484957541e-10)
(-88.3220000015 0 1.47023381099e-10)
(-88.3220000021 0 -3.20839179235e-10)
(-88.3219999988 0 -1.84824050929e-10)
(-88.3219999985 0 -4.92352680185e-11)
(-88.3220000014 0 -1.09998420191e-12)
(-88.3220000016 0 1.94190335135e-10)
(-88.3219999988 0 -6.72875494414e-11)
(-88.3219999986 0 4.23102966475e-10)
(-88.322 0 -2.03146287904e-10)
(-88.3220000001 0 3.11565315983e-10)
(-88.3219999999 0 2.85578978069e-10)
(-88.3220000005 0 -5.45734485675e-11)
(-88.322 0 2.45936590739e-11)
(-88.3219999999 0 6.54954527558e-11)
(-88.3220000004 0 1.59505780281e-11)
(-88.3219999998 0 -2.14092264957e-10)
(-88.3220000003 0 -4.44819856647e-10)
(-88.322 0 5.30268467728e-10)
(-88.3219999996 0 6.11890546493e-10)
(-88.3220000001 0 1.65712060696e-12)
(-88.322 0 2.99842899352e-10)
(-88.322 0 -1.71900801056e-10)
(-88.322 0 -2.00181078357e-10)
(-88.322 0 1.28698407472e-10)
(-88.322 0 -7.55180192991e-11)
(-88.322 0 5.80631141964e-11)
(-88.322 0 -1.83077061885e-10)
(-88.322 0 -3.90557529059e-10)
(-88.322 0 -3.27652101888e-10)
(-88.322 0 -3.18668750643e-10)
(-88.322 0 -3.76535447171e-10)
(-88.322 0 -3.61535689151e-10)
(-88.322 0 -9.43554197167e-11)
(-88.322 0 2.99403271795e-10)
(-88.3220000001 0 -8.34540142408e-11)
(-88.3219999998 0 5.51404353077e-11)
(-88.322 0 -9.80391659759e-11)
(-88.3220000001 0 -2.72098269416e-10)
(-88.322 0 4.10736037669e-10)
(-88.322 0 -1.64727255929e-10)
(-88.3220000001 0 -1.73914716262e-10)
(-88.322 0 -3.85470907072e-10)
(-88.3219999999 0 8.37306744039e-10)
(-88.322 0 3.17393846564e-10)
(-88.3220000001 0 -7.92137284208e-10)
(-88.3220000001 0 -1.05786185778e-09)
(-88.322 0 -4.35898850143e-10)
(-88.3219999994 0 6.6780713389e-11)
(-88.3219999989 0 8.96091845129e-11)
(-88.322 0 -2.72918407464e-11)
(-88.322 0 1.82012609274e-10)
(-88.3219999999 0 -1.4110763057e-10)
(-88.322 0 1.32249095402e-10)
(-88.322 0 -3.77939655659e-11)
(-88.322 0 -8.84462315601e-11)
(-88.3220000001 0 2.19936317825e-10)
(-88.3219999999 0 5.25962314187e-10)
(-88.3220000003 0 6.44825142297e-10)
(-88.3220000001 0 -2.59144125513e-10)
(-88.322 0 -5.62510685513e-10)
(-88.3220000005 0 5.30312779604e-10)
(-88.3219999989 0 5.5079359306e-10)
(-88.3219999988 0 -3.61028142317e-10)
(-88.3220000001 0 -2.74001967384e-10)
(-88.3220000009 0 -5.54579386007e-10)
(-88.3220000008 0 4.45711179163e-10)
(-88.3219999994 0 5.0282323971e-10)
(-88.3219999993 0 -2.2421129779e-10)
(-88.3219999998 0 -2.18420323536e-10)
(-88.3220000004 0 5.42939156369e-10)
(-88.3219999994 0 5.43975376814e-10)
(-88.3220000003 0 -8.38847459625e-11)
(-88.322 0 -1.53166023375e-10)
(-88.3219999989 0 -8.64820807536e-11)
(-88.3220000007 0 8.42766088273e-11)
(-88.3220000007 0 -6.20093228407e-11)
(-88.3219999999 0 4.13771831733e-11)
(-88.322 0 8.78900951026e-11)
(-88.3220000003 0 -1.07257584317e-11)
(-88.322 0 -4.56713162405e-10)
(-88.322 0 4.31137779798e-10)
(-88.3220000001 0 6.08009614378e-10)
(-88.322 0 -3.82412794332e-10)
(-88.3220000003 0 -6.71804192913e-10)
(-88.322 0 8.0671135221e-10)
(-88.3219999997 0 3.97204231854e-10)
(-88.322 0 -3.62462447938e-10)
(-88.322 0 -4.31507553673e-10)
(-88.322 0 1.77801831645e-10)
(-88.3220000004 0 -2.72331348473e-10)
(-88.322000001 0 -6.20642571958e-11)
(-88.3220000003 0 -3.31716734172e-10)
(-88.3219999998 0 5.91465073796e-11)
(-88.3220000001 0 -5.80108521484e-10)
(-88.3219999999 0 -5.8901256269e-10)
(-88.3219999995 0 4.79020638815e-10)
(-88.3219999986 0 2.06211745888e-11)
(-88.322 0 -3.77818144575e-10)
(-88.322000001 0 1.71633940012e-10)
(-88.3219999995 0 -4.33978322691e-10)
(-88.322 0 3.99239949719e-10)
(-88.322 0 6.38613039377e-11)
(-88.3220000004 0 -3.3882217569e-10)
(-88.3220000012 0 -3.59835824573e-10)
(-88.3220000003 0 -3.80937077689e-10)
(-88.3219999982 0 -1.64286721013e-10)
(-88.3219999979 0 -1.79916636923e-10)
(-88.3220000019 0 -1.52898682917e-10)
(-88.3220000026 0 8.235699356e-11)
(-88.3220000001 0 5.33371826191e-11)
(-88.3219999999 0 7.35755326554e-11)
(-88.322 0 6.12205301253e-10)
(-88.322 0 1.81990857521e-10)
(-88.322 0 -3.81794486955e-11)
(-88.322 0 1.54127891359e-10)
(-88.322 0 -1.82928963317e-10)
(-88.322 0 3.54249601981e-11)
(-88.322 0 1.25567705519e-11)
(-88.322 0 3.61006603501e-11)
(-88.322 0 2.40014379363e-11)
(-88.322 0 9.12174709436e-11)
(-88.3219999998 0 -3.01625523777e-11)
(-88.3219999997 0 1.61386252873e-10)
(-88.3220000004 0 -1.08612924943e-11)
(-88.3220000001 0 3.67264746448e-10)
(-88.3219999998 0 3.32848679246e-10)
(-88.322 0 -2.71917831713e-10)
(-88.322 0 -2.00719736103e-10)
(-88.322 0 -2.75198898888e-10)
(-88.322 0 4.74072005923e-10)
(-88.322 0 4.31739988838e-10)
(-88.322 0 -4.91829447344e-10)
(-88.3219999999 0 -5.0968308481e-10)
(-88.322 0 3.15200995412e-10)
(-88.322 0 4.90645855782e-10)
(-88.322 0 -1.96282575125e-10)
(-88.322 0 5.61853554351e-10)
(-88.3219999996 0 -1.95526033253e-10)
(-88.3219999999 0 3.54550951571e-11)
(-88.3220000005 0 -1.0425763499e-10)
(-88.3219999997 0 -2.54998996933e-10)
(-88.3219999999 0 8.55017222548e-11)
(-88.3220000014 0 -8.49344191663e-11)
(-88.3219999989 0 6.10786476173e-12)
(-88.3219999983 0 -8.07056274271e-11)
(-88.3220000016 0 4.21535410759e-11)
(-88.3220000021 0 9.12336610226e-11)
(-88.3219999979 0 -7.05907830399e-11)
(-88.3219999979 0 3.52700281213e-10)
(-88.3220000022 0 -2.02120447269e-11)
(-88.3220000016 0 3.61899236666e-11)
(-88.3219999989 0 -6.57452037527e-11)
(-88.3219999998 0 -4.58441786653e-12)
(-88.3220000004 0 -7.69776867224e-11)
(-88.3220000002 0 1.84922824433e-10)
(-88.3219999997 0 4.20423612648e-10)
(-88.3220000005 0 3.25383898798e-10)
(-88.3220000013 0 3.395317139e-10)
(-88.3219999979 0 2.61397770409e-10)
(-88.321999999 0 5.01025851688e-10)
(-88.3220000016 0 1.9889771269e-10)
(-88.3219999998 0 -3.54632888368e-10)
(-88.3220000003 0 1.08988900902e-10)
(-88.3219999993 0 -1.85788882535e-10)
(-88.321999999 0 2.44300428287e-10)
(-88.3220000015 0 5.5010414751e-10)
(-88.3220000008 0 -5.28014610085e-10)
(-88.3220000001 0 -1.530295143e-10)
(-88.3219999997 0 4.25139959514e-10)
(-88.3219999996 0 6.25124648051e-11)
(-88.3219999998 0 -4.50837254805e-10)
(-88.3219999995 0 -1.01133517702e-09)
(-88.3219999998 0 8.2440101606e-10)
(-88.3220000001 0 9.37277593713e-10)
(-88.322 0 7.21377495705e-10)
(-88.3220000005 0 -3.05524708475e-10)
(-88.3220000001 0 -1.12781204658e-10)
(-88.322 0 2.13260144005e-10)
(-88.3220000004 0 -3.596616679e-11)
(-88.322 0 -5.3060936545e-11)
(-88.3219999996 0 -1.12299597181e-11)
(-88.322 0 2.91129668695e-12)
(-88.322 0 2.94499048827e-11)
(-88.322 0 1.93729184957e-11)
(-88.322 0 -4.99063529995e-12)
(-88.322 0 6.15284251222e-11)
(-88.3220000001 0 -2.47460444031e-10)
(-88.3219999997 0 -2.61531491827e-10)
(-88.3219999999 0 3.24336342075e-11)
(-88.3220000002 0 -2.45806224938e-11)
(-88.322 0 3.28577614952e-11)
(-88.3220000001 0 1.4287277252e-10)
(-88.3219999995 0 1.417920012e-10)
(-88.3219999995 0 -2.17232380079e-11)
(-88.3220000014 0 1.26296060104e-12)
(-88.3220000012 0 2.70184437699e-11)
(-88.3219999982 0 2.35574821033e-11)
(-88.3219999985 0 7.22902904402e-11)
(-88.3220000005 0 -1.25352417945e-10)
(-88.3220000001 0 1.21853233949e-10)
(-88.3220000001 0 3.58390271305e-12)
(-88.3219999999 0 2.44228831777e-10)
(-88.3220000005 0 2.80397938147e-10)
(-88.3220000012 0 3.51526611408e-10)
(-88.3219999995 0 -2.57943597416e-11)
(-88.3219999996 0 1.50729033992e-10)
(-88.3220000004 0 3.82565485677e-10)
(-88.322 0 -3.06118102755e-11)
(-88.322 0 -5.23386802755e-10)
(-88.3219999999 0 -7.39676264454e-10)
(-88.3220000002 0 1.77091516295e-10)
(-88.3219999997 0 8.37711571777e-10)
(-88.3219999999 0 -1.0469695145e-09)
(-88.3220000003 0 -2.80747301876e-10)
(-88.322 0 1.71396451852e-10)
(-88.322 0 3.78073855267e-10)
(-88.322 0 -1.50750476174e-10)
(-88.322 0 2.37283632446e-10)
(-88.322 0 6.74662560789e-11)
(-88.322 0 3.05357886288e-10)
(-88.322 0 -4.58626296599e-11)
(-88.3220000002 0 5.77999713163e-10)
(-88.3219999997 0 5.07856819782e-10)
(-88.3219999997 0 -4.16277411667e-10)
(-88.3220000003 0 -1.21103010933e-10)
(-88.3220000001 0 2.8553424493e-10)
(-88.3220000007 0 -9.06816622051e-12)
(-88.3219999993 0 3.48841426984e-10)
(-88.3219999985 0 -4.02709831309e-10)
(-88.3220000015 0 -6.64702641661e-11)
(-88.3220000017 0 -2.33045480983e-10)
(-88.3219999992 0 1.49248697756e-10)
(-88.3219999999 0 1.16264364935e-10)
(-88.3219999998 0 -3.02219568946e-10)
(-88.322 0 7.589125954e-10)
(-88.3219999993 0 6.29213386537e-10)
(-88.3219999987 0 3.85316979412e-10)
(-88.3220000002 0 1.60734283763e-10)
(-88.3220000004 0 -9.57936909113e-12)
(-88.3220000002 0 -1.03445810244e-10)
(-88.321999999 0 -2.06873448279e-10)
(-88.322 0 3.91586454033e-10)
(-88.3220000005 0 6.05898680357e-10)
(-88.322 0 -1.3639923887e-11)
(-88.3219999999 0 4.25952951801e-10)
(-88.322 0 3.28994858155e-10)
(-88.322 0 -4.20183568585e-10)
(-88.322 0 1.47625282448e-11)
(-88.3219999999 0 9.07267078347e-11)
(-88.3220000003 0 -4.12180689035e-11)
(-88.3220000003 0 1.738278152e-10)
(-88.3219999999 0 1.75915172024e-10)
(-88.3219999998 0 -5.0067717231e-10)
(-88.3219999998 0 4.93800081013e-10)
(-88.3219999997 0 3.99835522897e-10)
(-88.3219999998 0 5.16135633958e-10)
(-88.3220000003 0 1.15845125318e-10)
(-88.3220000003 0 -6.65342825844e-10)
(-88.322 0 -2.45211486758e-10)
(-88.3219999998 0 8.78394323029e-10)
(-88.3219999998 0 1.06799816448e-09)
(-88.3220000004 0 -6.1591027787e-10)
(-88.3219999999 0 -6.08780087955e-10)
(-88.3219999998 0 -4.37317414677e-10)
(-88.3219999998 0 -6.40489781107e-11)
(-88.3219999991 0 1.14090069975e-10)
(-88.3219999996 0 -4.3310267038e-10)
(-88.3220000012 0 5.08280892025e-10)
(-88.3220000001 0 6.8559956052e-10)
(-88.3219999991 0 -1.06563433641e-10)
(-88.3220000019 0 -3.58047140238e-10)
(-88.3220000007 0 9.29266637199e-11)
(-88.3219999995 0 1.57644143623e-10)
(-88.3220000002 0 1.15958473097e-10)
(-88.321999999 0 -1.16745452349e-10)
(-88.3220000003 0 -6.7695077807e-12)
(-88.3220000001 0 -5.78611274214e-11)
(-88.3219999999 0 4.81069112575e-12)
(-88.3220000003 0 5.29561346623e-11)
(-88.3219999996 0 4.3383655841e-11)
(-88.322 0 -2.02332376497e-11)
(-88.322 0 1.37878938272e-11)
(-88.322 0 8.61439900768e-12)
(-88.322 0 7.71219318179e-12)
(-88.322 0 1.24502862506e-11)
(-88.3220000001 0 -7.30635045348e-11)
(-88.3219999998 0 2.83981734628e-10)
(-88.3220000001 0 -1.97621609934e-10)
(-88.3220000002 0 -7.37164987163e-11)
(-88.3219999996 0 -1.62922764013e-11)
(-88.3220000002 0 8.87024206311e-11)
(-88.3220000001 0 2.680709458e-10)
(-88.3219999999 0 -4.2044559484e-10)
(-88.3220000012 0 -4.52214121922e-10)
(-88.3220000002 0 2.99952714052e-10)
(-88.3219999994 0 3.34029365908e-10)
(-88.3220000007 0 4.46626462782e-11)
(-88.3219999983 0 3.933821491e-10)
(-88.3219999979 0 -8.71670603664e-11)
(-88.3220000002 0 4.50371709722e-10)
(-88.3220000007 0 -2.58470864868e-10)
(-88.3220000009 0 -7.64912992193e-11)
(-88.3220000009 0 -2.45352210808e-10)
(-88.3220000004 0 4.6956720943e-10)
(-88.3219999991 0 2.17797304821e-11)
(-88.3219999984 0 -2.6466663544e-10)
(-88.3220000012 0 4.63493544936e-11)
(-88.3220000003 0 2.76979747176e-11)
(-88.3219999989 0 4.88627400774e-11)
(-88.3220000018 0 -8.27293855353e-11)
(-88.3220000007 0 6.06723143671e-11)
(-88.3219999991 0 -1.65083460646e-10)
(-88.3220000002 0 -1.68178813646e-10)
(-88.3219999999 0 4.05738220568e-10)
(-88.3219999997 0 -3.7731546471e-10)
(-88.3220000011 0 -3.37295333277e-10)
(-88.3219999993 0 -6.06145180209e-11)
(-88.3219999984 0 -1.2042646543e-10)
(-88.3219999999 0 4.56762407308e-12)
(-88.3220000008 0 -2.35122075691e-10)
(-88.3220000019 0 -1.16522781987e-10)
(-88.322 0 3.31726232216e-11)
(-88.3219999983 0 -1.63770636187e-12)
(-88.3219999986 0 -2.44766408371e-13)
(-88.3220000011 0 -2.99860984693e-11)
(-88.3220000018 0 1.13126486169e-12)
(-88.322 0 3.48829926841e-14)
(-88.321999999 0 -7.55339630383e-11)
(-88.321999999 0 4.63212759808e-11)
(-88.3220000007 0 -3.09346351492e-10)
(-88.3219999996 0 -3.41622062108e-10)
(-88.321999999 0 -5.6450071969e-10)
(-88.3220000008 0 2.84089692269e-10)
(-88.3220000017 0 -4.35450963839e-10)
(-88.322 0 -3.70152350014e-10)
(-88.321999999 0 7.90891773992e-10)
(-88.3219999999 0 1.94277998377e-10)
(-88.3220000004 0 -1.21185959251e-10)
(-88.3220000004 0 -4.37528446049e-10)
(-88.3219999997 0 -1.38790755996e-10)
(-88.3219999999 0 6.10255823605e-10)
(-88.322 0 -1.60170137092e-10)
(-88.3219999999 0 -8.93053415938e-11)
(-88.3220000001 0 4.48091358217e-11)
(-88.322 0 8.0599444701e-11)
(-88.322 0 -1.8366125719e-10)
(-88.322 0 6.09371344901e-11)
(-88.322 0 3.34255057943e-11)
(-88.3220000001 0 8.77465003918e-12)
(-88.3219999996 0 -9.81044065564e-12)
(-88.322 0 -3.39794274435e-11)
(-88.3220000004 0 2.97269533099e-11)
(-88.322 0 -3.41597241918e-11)
(-88.3219999998 0 1.10275100898e-10)
(-88.3220000002 0 -3.97734679717e-11)
(-88.3220000003 0 6.35159977738e-11)
(-88.3219999998 0 -6.88886423101e-11)
(-88.322 0 4.67151997142e-11)
(-88.3220000002 0 3.23784385129e-10)
(-88.3219999998 0 2.53126959958e-11)
(-88.3219999998 0 9.06677569405e-11)
(-88.3220000001 0 4.71165632664e-10)
(-88.3219999999 0 -5.02946083747e-10)
(-88.3219999997 0 -4.53474571221e-10)
(-88.3219999997 0 5.64390307205e-11)
(-88.3220000002 0 2.44272648149e-10)
(-88.3220000005 0 -9.81190095952e-11)
(-88.322 0 8.99060055563e-11)
(-88.3220000005 0 1.99782837921e-10)
(-88.3219999998 0 -3.68665715058e-10)
(-88.3219999999 0 -6.31143227955e-10)
(-88.322 0 1.94446648517e-10)
(-88.3220000001 0 -4.35581131287e-10)
(-88.3219999999 0 -3.52289270867e-10)
(-88.3220000001 0 4.15054198205e-10)
(-88.3220000005 0 -2.75165281285e-11)
(-88.3219999986 0 -1.18620794318e-10)
(-88.3220000007 0 7.31351473392e-11)
(-88.3220000019 0 -1.66379560095e-10)
(-88.3219999992 0 -1.06892955086e-10)
(-88.3219999993 0 3.68263002285e-10)
(-88.3219999996 0 -4.91880476568e-10)
(-88.3219999999 0 -3.55682495707e-10)
(-88.3219999999 0 -5.00758323135e-10)
(-88.3219999998 0 -3.2408054293e-12)
(-88.3220000001 0 4.45677758123e-10)
(-88.322 0 2.79521095065e-11)
(-88.322 0 -3.76661586412e-10)
(-88.3219999998 0 -6.86034626541e-10)
(-88.3220000003 0 1.92226025037e-10)
(-88.322 0 2.00527916293e-10)
(-88.3219999997 0 2.23422948609e-10)
(-88.3220000003 0 -2.71570254003e-10)
(-88.3219999998 0 -2.87278906351e-10)
(-88.3220000001 0 5.87224951702e-11)
(-88.322 0 -4.8436677566e-10)
(-88.322 0 -4.53123075771e-10)
(-88.3220000003 0 -9.78225821489e-11)
(-88.3219999995 0 4.08888839231e-10)
(-88.3219999997 0 -7.68384153004e-11)
(-88.3220000013 0 -8.8626513253e-11)
(-88.3220000015 0 -1.11369568968e-10)
(-88.321999999 0 -4.93329150085e-11)
(-88.3219999981 0 2.17105594967e-10)
(-88.3220000001 0 -4.42423449873e-11)
(-88.3220000013 0 7.75436857474e-11)
(-88.3219999999 0 -3.31081434931e-11)
(-88.3219999993 0 -2.17150293483e-11)
(-88.3220000005 0 3.8196266295e-11)
(-88.322 0 -5.47563819516e-12)
(-88.3219999996 0 -1.16626115423e-11)
(-88.3220000001 0 -3.81517778964e-11)
(-88.322 0 -2.37352319821e-11)
(-88.3220000002 0 4.43203885101e-11)
(-88.3219999998 0 -1.85632846583e-10)
(-88.3220000001 0 4.64769099588e-11)
(-88.322 0 1.09023259033e-10)
(-88.3219999996 0 -1.53010262745e-10)
(-88.3220000002 0 -1.68656125499e-10)
(-88.322 0 1.05185671775e-10)
(-88.3219999998 0 5.66156610852e-10)
(-88.3220000005 0 5.65351964794e-10)
(-88.3220000003 0 -2.87906312902e-10)
(-88.3219999999 0 -3.44106640319e-10)
(-88.3219999998 0 -2.17024903614e-10)
(-88.3219999996 0 -4.53702395354e-10)
(-88.3219999998 0 1.64137108363e-10)
(-88.3219999992 0 -4.23402774131e-10)
(-88.3219999993 0 3.52588403484e-10)
(-88.3220000012 0 -1.69999593312e-10)
(-88.3220000004 0 1.38850532047e-10)
(-88.3220000003 0 -2.80448296171e-10)
(-88.3220000001 0 9.83220755806e-12)
(-88.322 0 -4.43282177787e-11)
(-88.322 0 -3.05390405906e-13)
(-88.322 0 -7.26338654443e-11)
(-88.322 0 8.58137076852e-11)
(-88.322 0 3.91533221669e-11)
(-88.322 0 -9.25409692571e-11)
(-88.3220000001 0 1.58957273893e-10)
(-88.322 0 1.56583241405e-10)
(-88.322 0 -4.68515468235e-10)
(-88.322 0 5.48306572425e-10)
(-88.322 0 5.37916267658e-10)
(-88.322 0 8.12036793237e-11)
(-88.322 0 1.20346265157e-10)
(-88.322 0 -3.14699011662e-11)
(-88.322 0 8.34941911125e-11)
(-88.322 0 -1.4798759619e-11)
(-88.322 0 2.74864209276e-12)
(-88.322 0 8.62478944812e-12)
(-88.322 0 -2.34688588209e-11)
(-88.322 0 1.49552663281e-11)
(-88.322 0 -1.17409206952e-11)
(-88.322 0 1.49059114678e-10)
(-88.322 0 -5.79568613688e-11)
(-88.322 0 -4.33848424731e-11)
(-88.322 0 7.55132248766e-11)
(-88.322 0 -2.6468789517e-11)
(-88.322 0 3.90905491336e-11)
(-88.322 0 -1.84442420431e-10)
(-88.322 0 4.50009559142e-11)
(-88.322 0 -8.29215538734e-11)
(-88.322 0 -3.42806128384e-11)
(-88.322 0 2.04983903893e-10)
(-88.3220000003 0 -1.53051915684e-10)
(-88.3219999999 0 1.58284626182e-10)
(-88.3219999997 0 -1.8664373571e-10)
(-88.3220000001 0 -7.27452312342e-10)
(-88.322 0 1.63447983394e-10)
(-88.322 0 3.04463125259e-10)
(-88.322 0 -2.29794138889e-11)
(-88.322 0 -8.08661181194e-11)
(-88.322 0 1.88902715041e-10)
(-88.322 0 -8.73868979039e-11)
(-88.322 0 -3.13681616053e-11)
(-88.322 0 -2.3089318073e-11)
(-88.322 0 -5.86838673845e-11)
(-88.322 0 1.39281172459e-10)
(-88.3219999998 0 -1.37119520104e-11)
(-88.3220000003 0 1.93689496062e-10)
(-88.3220000003 0 -5.15260126929e-11)
(-88.3219999996 0 -7.36418624676e-11)
(-88.3219999988 0 -1.61974593063e-10)
(-88.3219999989 0 6.7281725338e-11)
(-88.3220000018 0 1.27165076083e-10)
(-88.322000002 0 -2.42656689307e-10)
(-88.3219999996 0 -1.04402137529e-10)
(-88.322 0 -5.47717757056e-11)
(-88.3219999994 0 -1.07539648102e-10)
(-88.3219999998 0 4.853292722e-11)
(-88.3219999993 0 5.79180487806e-11)
(-88.3219999992 0 -1.00560898784e-09)
(-88.3220000006 0 -8.34722452602e-10)
(-88.322 0 -2.35412013839e-10)
(-88.3219999996 0 1.2607639458e-10)
(-88.3220000001 0 1.2142234697e-10)
(-88.3219999999 0 -1.57568443538e-10)
(-88.322 0 -5.03553833759e-11)
(-88.3219999997 0 6.92199548535e-11)
(-88.3219999999 0 5.66720054257e-11)
(-88.3220000003 0 -1.25580798651e-10)
(-88.322 0 -1.38341180716e-10)
(-88.322 0 -3.47675111829e-11)
(-88.322 0 -6.50771113697e-11)
(-88.322 0 6.43253165907e-12)
(-88.3219999999 0 -2.61907132903e-11)
(-88.3220000002 0 -8.16281235233e-12)
(-88.3220000001 0 -2.34758114064e-11)
(-88.3219999998 0 -3.10505599267e-11)
(-88.322 0 -3.97324640051e-11)
(-88.322 0 -3.44095420902e-11)
(-88.322 0 -5.48143614092e-12)
(-88.322 0 4.82446186323e-11)
(-88.322 0 -1.67406129025e-10)
(-88.3219999999 0 -7.03525058999e-11)
(-88.3219999999 0 4.88152073197e-10)
(-88.322 0 3.40964532736e-10)
(-88.3220000001 0 -4.5985789684e-10)
(-88.3220000001 0 -3.49260818283e-10)
(-88.322 0 -1.13984370709e-10)
(-88.3219999998 0 6.68679205542e-11)
(-88.3220000002 0 -1.62266002927e-10)
(-88.3220000003 0 1.22948783453e-10)
(-88.322 0 -1.48064934658e-10)
(-88.3220000001 0 -4.0231295224e-10)
(-88.3219999997 0 -3.10826682272e-10)
(-88.3219999991 0 2.40377570917e-10)
(-88.3220000015 0 -4.18073362761e-10)
(-88.3220000016 0 -4.58040661354e-10)
(-88.3219999991 0 -4.07140411468e-10)
(-88.3219999999 0 4.38904576498e-10)
(-88.3219999994 0 3.34653472171e-10)
(-88.3219999991 0 -3.68193566763e-10)
(-88.3220000003 0 -2.44351340363e-10)
(-88.322 0 5.16194201132e-10)
(-88.322 0 1.13404384086e-10)
(-88.322 0 -3.38714747615e-10)
(-88.322 0 -5.50605998774e-10)
(-88.322 0 2.38805939475e-10)
(-88.3220000001 0 -2.3888270914e-10)
(-88.3219999999 0 -8.23836917942e-11)
(-88.3219999997 0 -5.0886684286e-10)
(-88.322 0 4.23923859636e-10)
(-88.3220000001 0 -1.20639133776e-10)
(-88.322 0 6.2968856234e-11)
(-88.3220000005 0 2.66965984725e-10)
(-88.3219999998 0 -3.93369977065e-10)
(-88.3219999993 0 -9.22939309907e-10)
(-88.3220000011 0 -1.10195802233e-09)
(-88.3220000007 0 -4.052230096e-10)
(-88.3219999995 0 9.75356598634e-10)
(-88.3219999998 0 5.65767204808e-10)
(-88.3219999993 0 -7.49278175345e-11)
(-88.3219999994 0 -6.7956520663e-10)
(-88.3220000013 0 7.27305723999e-10)
(-88.3220000011 0 -2.91316744612e-11)
(-88.3219999996 0 -1.77311817721e-10)
(-88.3219999995 0 -2.69056940655e-11)
(-88.322 0 1.06654959617e-10)
(-88.3220000006 0 5.52969042848e-11)
(-88.3220000003 0 2.32276360397e-10)
(-88.3219999996 0 -2.220549714e-10)
(-88.3219999998 0 1.74062010976e-10)
(-88.3220000004 0 -2.60918794018e-10)
(-88.3220000003 0 2.10826978079e-10)
(-88.3219999998 0 2.49214588533e-10)
(-88.322 0 -2.11337608407e-10)
(-88.3219999999 0 -4.08584893278e-10)
(-88.322 0 -1.38509997215e-10)
(-88.322 0 -4.58025542362e-10)
(-88.322 0 -4.44013534191e-10)
(-88.322 0 -1.57646666218e-10)
(-88.322 0 7.51085887097e-11)
(-88.322 0 3.54861442491e-11)
(-88.322 0 9.64332371895e-11)
(-88.3219999999 0 -3.41983286136e-10)
(-88.3220000003 0 -6.97061810023e-10)
(-88.3220000002 0 3.18774384702e-10)
(-88.3219999987 0 3.1599728941e-10)
(-88.3219999992 0 7.52401818855e-10)
(-88.322000002 0 -4.60010353889e-10)
(-88.3220000013 0 -4.31737034726e-10)
(-88.3219999993 0 2.96223186717e-10)
(-88.3219999992 0 2.84983567112e-10)
(-88.3220000001 0 2.82203135306e-10)
(-88.322 0 1.04152707114e-10)
(-88.3220000001 0 3.07456047007e-10)
(-88.322000001 0 1.02857795615e-10)
(-88.3220000002 0 3.35740706971e-11)
(-88.3219999987 0 9.43384010357e-11)
(-88.3220000002 0 -1.33063950298e-10)
(-88.3220000013 0 -3.85428800971e-10)
(-88.3220000003 0 5.26270557739e-10)
(-88.321999998 0 7.66513390076e-10)
(-88.3219999982 0 4.79083679172e-10)
(-88.3220000016 0 7.25004829484e-10)
(-88.3220000011 0 -4.81920121405e-10)
(-88.3219999983 0 -3.48303513058e-11)
(-88.3219999993 0 2.17123036984e-11)
(-88.3220000017 0 -5.98647933293e-11)
(-88.3220000013 0 5.58668832459e-11)
(-88.3219999988 0 -9.1575593223e-11)
(-88.3219999994 0 4.2372029197e-11)
(-88.3220000006 0 -1.14757172385e-10)
(-88.3220000005 0 -2.88066935325e-10)
(-88.3219999989 0 2.31044144679e-10)
(-88.321999999 0 3.23620775377e-10)
(-88.3220000011 0 4.19590497017e-10)
(-88.3219999995 0 -3.3487047058e-10)
(-88.3220000004 0 -3.39932406554e-10)
(-88.3220000011 0 6.72355084895e-10)
(-88.3220000003 0 9.45890018047e-11)
(-88.3220000008 0 1.11185393906e-10)
(-88.321999998 0 3.47435494111e-10)
(-88.3219999977 0 5.38659287602e-10)
(-88.3220000021 0 6.32009457968e-10)
(-88.3220000017 0 -2.31996630827e-10)
(-88.3219999981 0 -3.67973000178e-10)
(-88.321999998 0 -1.88053245699e-10)
(-88.322000001 0 4.34685466569e-10)
(-88.3220000006 0 3.90589328558e-10)
(-88.3219999994 0 2.89894888649e-10)
(-88.322 0 -1.78553177551e-10)
(-88.3219999998 0 -2.09188759182e-10)
(-88.3220000004 0 1.29030821303e-10)
(-88.322 0 -2.52685815306e-11)
(-88.3219999999 0 -6.18696251683e-11)
(-88.3219999999 0 -1.07530580825e-10)
(-88.3219999993 0 1.19108104422e-10)
(-88.3220000008 0 9.70391766253e-11)
(-88.3220000013 0 3.67114218724e-11)
(-88.3219999998 0 -3.3461449614e-11)
(-88.322 0 -2.98006718311e-10)
(-88.3220000005 0 -2.97833776592e-11)
(-88.3219999996 0 -8.12569064191e-11)
(-88.3219999991 0 -1.00903777334e-10)
(-88.3219999995 0 7.28990485859e-11)
(-88.322 0 -1.01634377497e-10)
(-88.3220000007 0 -1.07127632534e-11)
(-88.3220000016 0 7.35406911453e-13)
(-88.3219999988 0 -6.78298769869e-11)
(-88.321999998 0 1.8994058045e-10)
(-88.321999999 0 5.01679041683e-12)
(-88.3220000015 0 -3.46303427277e-10)
(-88.3220000024 0 -2.26197255772e-10)
(-88.3219999987 0 3.23769700664e-10)
(-88.3219999986 0 4.51769334289e-10)
(-88.322 0 1.16859037999e-10)
(-88.3220000001 0 -4.73923010348e-11)
(-88.3220000001 0 1.66504045993e-10)
(-88.3220000003 0 -8.95048159377e-11)
(-88.3220000005 0 1.59019134298e-10)
(-88.3220000001 0 4.0444194582e-10)
(-88.322 0 3.10090916858e-10)
(-88.3219999999 0 -2.35493493124e-10)
(-88.3220000003 0 5.10990422307e-10)
(-88.3219999995 0 2.79259324373e-10)
(-88.3219999991 0 6.14692676704e-10)
(-88.322 0 -4.97792457933e-10)
(-88.3220000013 0 -3.33129113588e-10)
(-88.3220000006 0 5.13451989868e-10)
(-88.3219999993 0 2.13829972791e-10)
(-88.322 0 -5.20907144301e-10)
(-88.322 0 -1.05998687679e-10)
(-88.3220000001 0 3.2334730397e-10)
(-88.322 0 5.74495323928e-10)
(-88.322 0 -3.89741125641e-10)
(-88.3220000008 0 2.27922174834e-10)
(-88.3219999993 0 5.32434832773e-11)
(-88.3219999985 0 5.17841465001e-10)
(-88.3219999996 0 -4.49777327504e-10)
(-88.3220000015 0 2.5004777163e-11)
(-88.3220000016 0 1.40442802154e-10)
(-88.3219999985 0 -5.25048575702e-10)
(-88.321999999 0 1.12366754759e-10)
(-88.3220000004 0 7.41919162761e-10)
(-88.3220000005 0 7.13642726701e-10)
(-88.3219999999 0 4.37354732093e-10)
(-88.3219999991 0 -4.25170444979e-10)
(-88.3220000013 0 -5.84291301054e-10)
(-88.3220000012 0 4.94811212153e-10)
(-88.3219999995 0 4.68586117866e-10)
(-88.3219999997 0 -3.82037424627e-10)
(-88.322 0 -5.03913960262e-10)
(-88.3219999999 0 1.27709613168e-10)
(-88.322 0 -1.70556061589e-10)
(-88.322 0 -3.6926933541e-11)
(-88.322 0 1.12682444992e-10)
(-88.322 0 -1.96818564995e-10)
(-88.322 0 1.81644854113e-10)
(-88.322 0 -1.02907273777e-10)
(-88.322 0 1.52423883213e-10)
(-88.322 0 -2.12041456043e-10)
(-88.322 0 -1.27991103443e-10)
(-88.3220000002 0 -1.99199464254e-10)
(-88.3220000005 0 1.65504184141e-11)
(-88.322 0 3.40304687779e-10)
(-88.3219999996 0 1.73238530203e-10)
(-88.3220000001 0 -1.3077894476e-10)
(-88.3219999997 0 -2.70396205273e-10)
(-88.322 0 1.28409970727e-10)
(-88.3220000001 0 1.78665506698e-10)
(-88.3219999997 0 -2.11053740726e-10)
(-88.322 0 3.80701859571e-10)
(-88.322 0 6.91664577428e-10)
(-88.3220000001 0 -2.99095704313e-10)
(-88.3219999997 0 -3.26586102542e-10)
(-88.3219999997 0 -7.7325379973e-10)
(-88.3220000005 0 3.79746304326e-10)
(-88.322 0 3.96568222573e-10)
(-88.3219999998 0 -3.20389286952e-10)
(-88.3220000001 0 -2.89678545381e-10)
(-88.322 0 -3.21296555936e-10)
(-88.322 0 -2.06694301371e-10)
(-88.322 0 -2.18939898816e-10)
(-88.322 0 -1.07103142052e-10)
(-88.322 0 1.06879052738e-10)
(-88.322 0 1.16526153505e-10)
(-88.3219999997 0 -1.45741606485e-10)
(-88.3220000003 0 3.31389786413e-10)
(-88.3220000002 0 -2.99776590886e-10)
(-88.3219999996 0 -6.58578267271e-10)
(-88.322 0 -5.25082143905e-10)
(-88.3219999997 0 -1.21198529402e-10)
(-88.3220000001 0 -7.23848290046e-11)
(-88.3220000005 0 -4.53703060418e-10)
(-88.3219999999 0 2.31872002939e-10)
(-88.322 0 3.39867096533e-10)
(-88.322 0 -3.71353753289e-10)
(-88.3220000003 0 5.11049081131e-11)
(-88.3220000001 0 -5.01455751046e-10)
(-88.3219999997 0 -4.40935921391e-10)
(-88.322 0 1.24500168002e-10)
(-88.3219999999 0 -7.59769930327e-10)
(-88.322 0 -4.5283166967e-10)
(-88.3219999999 0 -4.59365863825e-10)
(-88.3220000006 0 2.20830421036e-10)
(-88.3220000006 0 2.92469967295e-10)
(-88.3219999987 0 -5.38105733211e-10)
(-88.3219999991 0 -1.04648706422e-10)
(-88.3220000014 0 -4.71314718571e-10)
(-88.3220000003 0 2.62665524682e-10)
(-88.3219999998 0 -4.46123261725e-10)
(-88.3220000003 0 -8.61132263185e-10)
(-88.3219999997 0 -2.00966561687e-10)
(-88.3219999999 0 8.20885867246e-11)
(-88.322 0 3.19207231585e-10)