/*--------------------------------*- C++ -*----------------------------------*\
  =========                 |
  \\      /  F ield         | OpenFOAM: The Open Source CFD Toolbox
   \\    /   O peration     | Website:  https://openfoam.org
    \\  /    A nd           | Version:  6
     \\/     M anipulation  |
\*---------------------------------------------------------------------------*/
FoamFile
{
    version     2.0;
    format      ascii;
    class       volVectorField;
    location    "1e-06";
    object      U;
}
// * * * * * * * * * * * * * * * * * * * * * * * * * * * * * * * * * * * * * //

dimensions      [0 1 -1 0 0 0 0];

internalField   nonuniform List<vector> 
8192
(
(-88.322 0 -1.10396300905e-13)
(-88.322 0 -1.0915208271e-14)
(-88.322 0 -1.54041702409e-13)
(-88.322 0 -2.29974203787e-13)
(-88.322 0 1.87471209687e-13)
(-88.322 0 9.04729077417e-14)
(-88.322 0 -1.62908556609e-14)
(-88.322 0 3.2459293726e-14)
(-88.322 0 -1.61266787037e-13)
(-88.322 0 -2.78421649557e-13)
(-88.322 0 -1.11760866605e-13)
(-88.322 0 1.21173377715e-13)
(-88.322 0 -2.1146684629e-13)
(-88.322 0 -2.21655170681e-13)
(-88.322 0 -3.01303389542e-13)
(-88.322 0 1.69591654034e-13)
(-88.322 0 -1.18877647888e-13)
(-88.322 0 1.48915689056e-13)
(-88.322 0 -2.41982043207e-13)
(-88.322 0 -1.43237714428e-13)
(-88.322 0 1.54811493609e-13)
(-88.322 0 3.20187879802e-13)
(-88.322 0 -3.24108348006e-14)
(-88.322 0 -1.87825665555e-13)
(-88.322 0 1.39877958334e-13)
(-88.322 0 1.55077029701e-13)
(-88.322 0 2.83988592084e-13)
(-88.322 0 1.51020594221e-13)
(-88.322 0 1.53881176338e-13)
(-88.322 0 -1.72596860166e-13)
(-88.322 0 3.03708740045e-13)
(-88.322 0 4.32610234262e-14)
(-88.322 0 -1.11225936526e-13)
(-88.322 0 1.32234997807e-13)
(-88.322 0 -2.10054762615e-13)
(-88.322 0 2.76187646051e-15)
(-88.322 0 -4.1476605833e-14)
(-88.322 0 -1.34851309301e-13)
(-88.322 0 1.54049982769e-13)
(-88.322 0 -1.72819583033e-14)
(-88.322 0 1.22531921335e-13)
(-88.322 0 6.3161457409e-14)
(-88.322 0 -1.43057334312e-13)
(-88.322 0 -4.92303161755e-14)
(-88.322 0 -6.3837153609e-14)
(-88.322 0 3.20995685383e-15)
(-88.322 0 -1.18011127026e-14)
(-88.322 0 -1.77287213666e-14)
(-88.322 0 1.02482629061e-13)
(-88.322 0 -1.73731457685e-13)
(-88.322 0 -4.92660722758e-14)
(-88.322 0 -9.65195465816e-14)
(-88.322 0 -1.72931556084e-14)
(-88.322 0 3.03764067905e-13)
(-88.322 0 -4.84596781198e-14)
(-88.322 0 -1.54539370867e-13)
(-88.322 0 2.42144827558e-13)
(-88.322 0 -8.38593465226e-14)
(-88.322 0 -1.81358704347e-14)
(-88.322 0 3.54357067881e-14)
(-88.322 0 2.1345178033e-13)
(-88.322 0 2.6127603491e-13)
(-88.322 0 1.63457224559e-13)
(-88.322 0 4.31454747653e-14)
(-88.322 0 1.50530038748e-16)
(-88.322 0 3.02421332245e-16)
(-88.322 0 5.55024066371e-14)
(-88.322 0 -4.85418230554e-14)
(-88.322 0 -1.72234312129e-14)
(-88.322 0 -9.39281702624e-14)
(-88.322 0 -1.85188370875e-15)
(-88.322 0 1.23264450915e-16)
(-88.322 0 -3.0571465727e-16)
(-88.322 0 -8.52781109432e-14)
(-88.322 0 -6.38152294738e-16)
(-88.322 0 -1.8786302127e-13)
(-88.322 0 -1.8320296636e-16)
(-88.322 0 5.97503254436e-17)
(-88.322 0 1.92396047928e-15)
(-88.322 0 1.49347961489e-13)
(-88.322 0 1.85555341378e-16)
(-88.322 0 -9.64473757161e-17)
(-88.322 0 -1.61896847162e-13)
(-88.322 0 -3.54738152634e-16)
(-88.322 0 1.64073452718e-14)
(-88.322 0 4.578662734e-16)
(-88.322 0 3.43634942551e-16)
(-88.322 0 -3.37801052508e-17)
(-88.322 0 -5.15426067227e-14)
(-88.322 0 -1.45568918071e-13)
(-88.322 0 -3.63206702697e-17)
(-88.322 0 3.61324802683e-16)
(-88.322 0 1.64708593973e-14)
(-88.322 0 -7.80047555792e-17)
(-88.322 0 -5.11080760095e-14)
(-88.322 0 -3.16244828798e-14)
(-88.322 0 -2.60078581931e-16)
(-88.322 0 -5.11524888498e-14)
(-88.322 0 3.45140462563e-16)
(-88.322 0 -6.74277247406e-14)
(-88.322 0 -9.56968739905e-14)
(-88.322 0 -4.49491818337e-16)
(-88.322 0 -5.12489362255e-14)
(-88.322 0 1.70500141266e-16)
(-88.322 0 1.81385991897e-13)
(-88.322 0 -8.22236931255e-14)
(-88.322 0 -2.2093506164e-16)
(-88.322 0 3.04735128313e-14)
(-88.322 0 -7.1653437127e-14)
(-88.322 0 -6.78188776585e-14)
(-88.322 0 -1.75752524205e-13)
(-88.322 0 -1.26397814438e-15)
(-88.322 0 -2.38418947815e-13)
(-88.322 0 4.81766403577e-17)
(-88.322 0 1.81693023884e-13)
(-88.322 0 -8.22306561555e-14)
(-88.322 0 -5.42645869029e-16)
(-88.322 0 -5.10890688193e-14)
(-88.322 0 1.08952601309e-15)
(-88.322 0 4.77111053417e-13)
(-88.322 0 -1.74312212029e-13)
(-88.322 0 -7.20973773403e-14)
(-88.322 0 -6.72669163844e-14)
(-88.322 0 -2.35143406746e-16)
(-88.322 0 -1.50521608433e-13)
(-88.322 0 -4.79290481824e-13)
(-88.322 0 -1.52533735928e-13)
(-88.322 0 -6.23994541309e-14)
(-88.322 0 1.11506109072e-13)
(-88.322 0 1.11006130604e-13)
(-88.322 0 -3.27691485633e-14)
(-88.322 0 2.91703441191e-13)
(-88.322 0 -1.89162943704e-14)
(-88.322 0 1.05988985167e-13)
(-88.322 0 4.85093602802e-14)
(-88.322 0 6.83220977223e-14)
(-88.322 0 9.97463464406e-15)
(-88.322 0 2.45079180155e-13)
(-88.322 0 6.40938447709e-14)
(-88.322 0 4.54639755826e-14)
(-88.322 0 2.09598025481e-13)
(-88.322 0 3.39995347924e-14)
(-88.322 0 2.13822985108e-13)
(-88.322 0 -1.24948186858e-13)
(-88.322 0 4.03040880292e-14)
(-88.322 0 7.38886638686e-14)
(-88.322 0 2.38077759343e-13)
(-88.322 0 3.87119065224e-14)
(-88.322 0 -1.42743527485e-13)
(-88.322 0 -1.93571294487e-14)
(-88.322 0 2.56205537607e-13)
(-88.322 0 1.71468755203e-13)
(-88.322 0 1.13454482522e-13)
(-88.322 0 -1.42274087526e-13)
(-88.322 0 -8.0946918061e-14)
(-88.322 0 7.28088296406e-14)
(-88.322 0 -1.41924430504e-13)
(-88.322 0 2.68240382292e-14)
(-88.322 0 -5.04093265343e-14)
(-88.322 0 -6.01227534564e-14)
(-88.322 0 9.43018215102e-14)
(-88.322 0 1.21629079803e-13)
(-88.322 0 4.34217470969e-13)
(-88.322 0 -5.11194615045e-14)
(-88.322 0 -1.00865324189e-13)
(-88.322 0 8.25532138179e-14)
(-88.322 0 9.86117489222e-14)
(-88.322 0 -1.69358863002e-13)
(-88.322 0 -2.32778234808e-13)
(-88.322 0 -9.14956263043e-14)
(-88.322 0 -4.44134048998e-14)
(-88.322 0 -6.16368361126e-14)
(-88.322 0 -1.1923257423e-13)
(-88.322 0 -5.25823564804e-14)
(-88.322 0 -1.51715203516e-13)
(-88.322 0 -1.69189492001e-13)
(-88.322 0 4.75928749734e-14)
(-88.322 0 3.87056962524e-14)
(-88.322 0 -6.09595402976e-14)
(-88.322 0 6.81090666407e-14)
(-88.322 0 -1.68931765794e-13)
(-88.322 0 -5.08156287473e-14)
(-88.322 0 -8.64544866419e-14)
(-88.322 0 -1.7101578187e-13)
(-88.322 0 -4.06011647655e-13)
(-88.322 0 -9.94221891632e-14)
(-88.322 0 -3.09925408551e-14)
(-88.322 0 -5.21514954722e-14)
(-88.322 0 -9.07682719489e-14)
(-88.322 0 1.64385942216e-13)
(-88.322 0 -9.06837746383e-14)
(-88.322 0 4.00153528377e-14)
(-88.322 0 1.00032185221e-13)
(-88.322 0 -5.94993740768e-14)
(-88.322 0 7.7172203013e-14)
(-88.322 0 2.00915409292e-13)
(-88.322 0 -1.61527336094e-13)
(-88.322 0 -2.82473192097e-16)
(-88.322 0 2.00140066486e-16)
(-88.322 0 1.14023945467e-13)
(-88.322 0 -6.464326548e-16)
(-88.322 0 2.38244683874e-13)
(-88.322 0 -3.05401320918e-14)
(-88.322 0 1.22365937754e-13)
(-88.322 0 1.2322370778e-13)
(-88.322 0 3.04581377081e-13)
(-88.322 0 2.15948026603e-16)
(-88.322 0 -2.43379918537e-13)
(-88.322 0 6.81327785809e-14)
(-88.322 0 -1.90989609953e-13)
(-88.322 0 1.54883852665e-13)
(-88.322 0 -3.04479189911e-14)
(-88.322 0 -3.2867007364e-14)
(-88.322 0 -3.11194844206e-13)
(-88.322 0 2.61986828545e-14)
(-88.322 0 2.07767407243e-14)
(-88.322 0 1.07154822226e-13)
(-88.322 0 2.84935658266e-13)
(-88.322 0 5.55241425822e-14)
(-88.322 0 2.67021852033e-14)
(-88.322 0 1.6975679076e-14)
(-88.322 0 6.25672474795e-14)
(-88.322 0 1.05967155127e-13)
(-88.322 0 -1.44576874478e-13)
(-88.322 0 -4.65017493453e-16)
(-88.322 0 -6.82360948916e-14)
(-88.322 0 3.6367059105e-14)
(-88.322 0 9.84141494207e-14)
(-88.322 0 5.2928437893e-16)
(-88.322 0 1.0705875123e-13)
(-88.322 0 -1.29849971824e-13)
(-88.322 0 3.06824978278e-14)
(-88.322 0 -1.20027112416e-13)
(-88.322 0 -1.14312723024e-13)
(-88.322 0 3.13010783624e-14)
(-88.322 0 3.17617674858e-14)
(-88.322 0 1.38375637552e-13)
(-88.322 0 3.70043645447e-14)
(-88.322 0 1.75421780277e-13)
(-88.322 0 3.25102932164e-14)
(-88.322 0 2.90153226054e-13)
(-88.322 0 8.28017187148e-14)
(-88.322 0 -1.19349816601e-13)
(-88.322 0 8.25853943082e-14)
(-88.322 0 3.1788960941e-14)
(-88.322 0 1.06589123081e-13)
(-88.322 0 8.15372700954e-14)
(-88.322 0 -4.06146015316e-13)
(-88.322 0 1.74101627418e-13)
(-88.322 0 1.70108800158e-13)
(-88.322 0 5.65040479195e-16)
(-88.322 0 1.69525787534e-13)
(-88.322 0 -1.44428957137e-13)
(-88.322 0 4.781917345e-13)
(-88.322 0 -2.91074416111e-14)
(-88.322 0 2.32410627472e-13)
(-88.322 0 -1.7309836559e-13)
(-88.322 0 -1.32452921828e-13)
(-88.322 0 8.31368851073e-14)
(-88.322 0 -4.69893496389e-14)
(-88.322 0 -1.45604015506e-13)
(-88.322 0 -3.81461132832e-16)
(-88.322 0 -1.14709898022e-13)
(-88.322 0 1.26205107877e-13)
(-88.322 0 6.79329207994e-14)
(-88.322 0 4.78641508604e-14)
(-88.322 0 6.0874007942e-14)
(-88.322 0 -4.26830825224e-13)
(-88.322 0 -4.46792797337e-13)
(-88.322 0 -1.63372444963e-14)
(-88.322 0 1.48387816102e-16)
(-88.322 0 -2.30535574562e-14)
(-88.322 0 1.87591839478e-13)
(-88.322 0 4.03846333498e-14)
(-88.322 0 -3.7032028475e-14)
(-88.322 0 5.54556414217e-14)
(-88.322 0 -1.5893680663e-14)
(-88.322 0 2.62144908146e-14)
(-88.322 0 3.56046073144e-14)
(-88.322 0 -2.25237179167e-13)
(-88.322 0 -5.72568079251e-16)
(-88.322 0 -1.57375770568e-14)
(-88.322 0 5.1182316965e-14)
(-88.322 0 5.01228072571e-14)
(-88.322 0 -4.62100548431e-16)
(-88.322 0 9.18367206819e-17)
(-88.322 0 1.17618750873e-17)
(-88.322 0 3.13390927427e-14)
(-88.322 0 -6.72163873691e-14)
(-88.322 0 -1.83216233755e-13)
(-88.322 0 -4.7882847537e-13)
(-88.322 0 -3.1248102877e-14)
(-88.322 0 1.45935324004e-13)
(-88.322 0 -2.72383385172e-13)
(-88.322 0 -5.16581553835e-16)
(-88.322 0 7.17523309727e-14)
(-88.322 0 2.00234161487e-16)
(-88.322 0 6.22699072773e-14)
(-88.322 0 7.15885115765e-14)
(-88.322 0 2.3439064674e-16)
(-88.322 0 1.2392311592e-16)
(-88.322 0 1.3201528598e-16)
(-88.322 0 5.10604639391e-14)
(-88.322 0 7.18599756535e-14)
(-88.322 0 -2.72875502026e-17)
(-88.322 0 -9.19661954028e-14)
(-88.322 0 -2.52833266877e-16)
(-88.322 0 6.26782795804e-14)
(-88.322 0 7.18760658987e-14)
(-88.322 0 -2.34767026743e-16)
(-88.322 0 -9.17870385215e-14)
(-88.322 0 -5.58171544144e-16)
(-88.322 0 5.0916216303e-14)
(-88.322 0 3.64271858105e-14)
(-88.322 0 -1.37538568426e-13)
(-88.322 0 2.05745587963e-13)
(-88.322 0 8.36067955408e-14)
(-88.322 0 2.05871392979e-13)
(-88.322 0 6.30183389129e-14)
(-88.322 0 -4.8052173602e-14)
(-88.322 0 -6.02507353539e-14)
(-88.322 0 2.07949951544e-17)
(-88.322 0 5.58116028094e-14)
(-88.322 0 2.83442370604e-14)
(-88.322 0 1.88284096398e-16)
(-88.322 0 1.32566588589e-13)
(-88.322 0 1.8919013716e-13)
(-88.322 0 -2.95204622072e-13)
(-88.322 0 5.02232066229e-14)
(-88.322 0 7.41929671009e-14)
(-88.322 0 -1.43986804729e-13)
(-88.322 0 1.94505187369e-13)
(-88.322 0 9.81544472188e-14)
(-88.322 0 -1.94775898686e-13)
(-88.322 0 2.53499835862e-13)
(-88.322 0 3.45229005958e-13)
(-88.322 0 -1.53270405688e-14)
(-88.322 0 6.86201906845e-14)
(-88.322 0 -7.16454390519e-14)
(-88.322 0 6.2902131587e-14)
(-88.322 0 2.83490923625e-13)
(-88.322 0 1.45352593664e-13)
(-88.322 0 -2.18562926673e-13)
(-88.322 0 -2.84036862819e-13)
(-88.322 0 -1.69533691514e-13)
(-88.322 0 1.2724683363e-13)
(-88.322 0 -1.84241116503e-13)
(-88.322 0 -1.4885631511e-13)
(-88.322 0 2.33763879941e-13)
(-88.322 0 2.03564183561e-14)
(-88.322 0 -1.74568056336e-13)
(-88.322 0 4.50157069992e-14)
(-88.322 0 2.09707646157e-14)
(-88.322 0 2.05614513627e-14)
(-88.322 0 8.20028521588e-14)
(-88.322 0 -6.14384838512e-14)
(-88.322 0 1.54431537997e-13)
(-88.322 0 6.27929813862e-14)
(-88.322 0 2.73251882029e-16)
(-88.322 0 1.69990428647e-13)
(-88.322 0 6.59605954897e-16)
(-88.322 0 4.55336058831e-14)
(-88.322 0 2.08021463744e-14)
(-88.322 0 2.05877979629e-14)
(-88.322 0 -3.06231238824e-14)
(-88.322 0 1.91953801425e-17)
(-88.322 0 2.98860777419e-14)
(-88.322 0 1.69626563279e-13)
(-88.322 0 -1.81393801782e-13)
(-88.322 0 -4.80919548571e-16)
(-88.322 0 2.09885485708e-14)
(-88.322 0 1.59005119601e-13)
(-88.322 0 1.69513178804e-13)
(-88.322 0 -1.73877963601e-13)
(-88.322 0 1.49026627061e-13)
(-88.322 0 6.73562125401e-14)
(-88.322 0 -2.38990951324e-14)
(-88.322 0 1.1983675823e-13)
(-88.322 0 1.18725119891e-13)
(-88.322 0 -1.6906491022e-13)
(-88.322 0 9.44826721015e-14)
(-88.322 0 -2.38719016772e-13)
(-88.322 0 2.94840192134e-13)
(-88.322 0 -1.99929939653e-13)
(-88.322 0 1.00121082665e-13)
(-88.322 0 7.65425192683e-14)
(-88.322 0 -9.84861320962e-14)
(-88.322 0 4.69024999532e-14)
(-88.322 0 2.27070996636e-14)
(-88.322 0 -1.00117080743e-16)
(-88.322 0 -6.73612936701e-14)
(-88.322 0 -1.28166800452e-14)
(-88.322 0 -1.8457675337e-15)
(-88.322 0 -4.72537565908e-14)
(-88.322 0 -1.94212081442e-16)
(-88.322 0 9.69178507196e-17)
(-88.322 0 5.20815828867e-16)
(-88.322 0 8.48683272151e-14)
(-88.322 0 2.90000792153e-16)
(-88.322 0 6.47721756309e-15)
(-88.322 0 -1.56013839528e-13)
(-88.322 0 -9.56829479304e-14)
(-88.322 0 6.87805285657e-14)
(-88.322 0 -3.05265824117e-14)
(-88.322 0 -1.28063295951e-16)
(-88.322 0 -1.48873722685e-13)
(-88.322 0 4.03867975349e-14)
(-88.322 0 2.56025910251e-13)
(-88.322 0 -1.8117305491e-13)
(-88.322 0 -9.12815601777e-16)
(-88.322 0 -1.81572676378e-13)
(-88.322 0 2.59494251977e-14)
(-88.322 0 -1.56674762813e-14)
(-88.322 0 -8.10542804568e-14)
(-88.322 0 -1.82379070534e-13)
(-88.322 0 -6.15083964367e-14)
(-88.322 0 2.73020126042e-13)
(-88.322 0 5.36341503982e-16)
(-88.322 0 -6.5866500489e-19)
(-88.322 0 -1.42083451055e-16)
(-88.322 0 -1.96068575806e-14)
(-88.322 0 4.77642596076e-13)
(-88.322 0 -1.80404957419e-13)
(-88.322 0 -2.09831851558e-16)
(-88.322 0 6.21750595166e-14)
(-88.322 0 3.65464982713e-16)
(-88.322 0 1.42836211061e-16)
(-88.322 0 6.22035703018e-14)
(-88.322 0 6.70459813228e-14)
(-88.322 0 -3.05882146371e-14)
(-88.322 0 -3.5285625262e-17)
(-88.322 0 1.3333261599e-16)
(-88.322 0 5.12118627952e-14)
(-88.322 0 2.80591292083e-16)
(-88.322 0 6.21066524511e-14)
(-88.322 0 8.1486270605e-17)
(-88.322 0 -4.96257033685e-16)
(-88.322 0 -1.8183143763e-13)
(-88.322 0 -1.87907716395e-16)
(-88.322 0 7.13544032148e-14)
(-88.322 0 2.02774726506e-16)
(-88.322 0 3.08946820544e-14)
(-88.322 0 1.07655689914e-13)
(-88.322 0 1.94682556445e-16)
(-88.322 0 -2.91694502166e-18)
(-88.322 0 1.88190001397e-18)
(-88.322 0 -2.13125176582e-16)
(-88.322 0 -8.24563458993e-14)
(-88.322 0 2.317588079e-13)
(-88.322 0 2.1820630662e-15)
(-88.322 0 -7.3127717598e-14)
(-88.322 0 -3.17776695409e-14)
(-88.322 0 1.30046818566e-13)
(-88.322 0 -3.82300460238e-14)
(-88.322 0 -1.87594191853e-13)
(-88.322 0 2.95715181546e-13)
(-88.322 0 -4.88057595324e-14)
(-88.322 0 -1.973523139e-13)
(-88.322 0 1.13250860941e-13)
(-88.322 0 -1.08606613991e-13)
(-88.322 0 2.04974667622e-13)
(-88.322 0 -1.0845662656e-13)
(-88.322 0 -1.66456502706e-13)
(-88.322 0 -1.89244241785e-13)
(-88.322 0 1.65225646002e-13)
(-88.322 0 1.13208424096e-13)
(-88.322 0 4.06071680265e-14)
(-88.322 0 -3.18565211515e-14)
(-88.322 0 -1.27772448304e-13)
(-88.322 0 1.65662434995e-13)
(-88.322 0 1.98733722606e-13)
(-88.322 0 2.01444223196e-13)
(-88.322 0 1.14240175778e-13)
(-88.322 0 -1.27523190647e-13)
(-88.322 0 1.29018830683e-13)
(-88.322 0 1.2256193764e-13)
(-88.322 0 -2.33765479556e-13)
(-88.322 0 -2.07158612588e-14)
(-88.322 0 1.20001800861e-13)
(-88.322 0 1.51536046635e-13)
(-88.322 0 -2.02846238706e-14)
(-88.322 0 -8.27455439994e-14)
(-88.322 0 -8.27996486248e-14)
(-88.322 0 1.13290380841e-16)
(-88.322 0 1.40962026837e-13)
(-88.322 0 -6.13754402007e-14)
(-88.322 0 1.80976396359e-13)
(-88.322 0 -1.69721693325e-13)
(-88.322 0 -6.21104162512e-14)
(-88.322 0 1.51275779863e-13)
(-88.322 0 -2.03507726561e-14)
(-88.322 0 -8.29154795706e-14)
(-88.322 0 -3.64392299706e-14)
(-88.322 0 3.06205833173e-14)
(-88.322 0 -2.98260451314e-14)
(-88.322 0 -1.69635502304e-13)
(-88.322 0 1.30070812791e-13)
(-88.322 0 2.47281661836e-16)
(-88.322 0 -8.30617032017e-14)
(-88.322 0 -1.59166868907e-13)
(-88.322 0 -1.69509885479e-13)
(-88.322 0 1.18678260581e-13)
(-88.322 0 -1.49303736839e-13)
(-88.322 0 -1.38594878904e-13)
(-88.322 0 2.34921342544e-14)
(-88.322 0 -1.82274625083e-13)
(-88.322 0 -1.90079711296e-13)
(-88.322 0 1.68993868495e-13)
(-88.322 0 -9.44605597763e-14)
(-88.322 0 2.38188885538e-13)
(-88.322 0 -2.94894390855e-13)
(-88.322 0 1.99866345799e-13)
(-88.322 0 1.73285513305e-14)
(-88.322 0 4.05831738013e-16)
(-88.322 0 8.50572699765e-14)
(-88.322 0 -3.25568702417e-17)
(-88.322 0 -3.09406945097e-14)
(-88.322 0 2.09045217352e-13)
(-88.322 0 6.71548492386e-14)
(-88.322 0 -1.13833120805e-13)
(-88.322 0 1.00277042245e-15)
(-88.322 0 -8.57579954467e-14)
(-88.322 0 -6.16109599874e-14)
(-88.322 0 2.08501065963e-13)
(-88.322 0 4.27053265806e-13)
(-88.322 0 -8.42620731256e-14)
(-88.322 0 1.19359508386e-15)
(-88.322 0 -3.99715562968e-16)
(-88.322 0 -6.19764249702e-14)
(-88.322 0 1.0572956525e-13)
(-88.322 0 -1.60680386993e-14)
(-88.322 0 3.05463423618e-14)
(-88.322 0 1.15642755859e-16)
(-88.322 0 1.49200608718e-13)
(-88.322 0 -2.58167512467e-14)
(-88.322 0 2.08526753898e-14)
(-88.322 0 1.81579357123e-13)
(-88.322 0 5.92045744396e-16)
(-88.322 0 1.81593753658e-13)
(-88.322 0 -2.63305099505e-14)
(-88.322 0 -1.66359961235e-16)
(-88.322 0 1.17052769444e-13)
(-88.322 0 1.82079095672e-13)
(-88.322 0 3.06625496877e-14)
(-88.322 0 -1.74278243734e-13)
(-88.322 0 1.81249460051e-13)
(-88.322 0 7.15385471312e-14)
(-88.322 0 3.05411671368e-14)
(-88.322 0 -1.26019270251e-13)
(-88.322 0 -4.77607498641e-13)
(-88.322 0 1.80631067706e-13)
(-88.322 0 6.69063443418e-14)
(-88.322 0 -6.21803288367e-14)
(-88.322 0 -6.20676030258e-14)
(-88.322 0 6.65975245495e-14)
(-88.322 0 -6.23166724927e-14)
(-88.322 0 -6.66392086348e-14)
(-88.322 0 3.03507188553e-14)
(-88.322 0 -5.04721819947e-14)
(-88.322 0 6.64319173482e-14)
(-88.322 0 -5.03800629891e-14)
(-88.322 0 1.16385824079e-13)
(-88.322 0 -6.19863990402e-14)
(-88.322 0 -6.25769392646e-14)
(-88.322 0 6.70951930082e-14)
(-88.322 0 1.82094997727e-13)
(-88.322 0 1.16656441301e-13)
(-88.322 0 -7.13560969248e-14)
(-88.322 0 -5.08380233575e-14)
(-88.322 0 -6.68428302163e-14)
(-88.322 0 2.98752568168e-14)
(-88.322 0 -1.74442909985e-13)
(-88.322 0 -2.21426237544e-14)
(-88.322 0 -4.77884796608e-13)
(-88.322 0 -6.35933534622e-14)
(-88.322 0 3.10197183084e-14)
(-88.322 0 -4.83593715551e-14)
(-88.322 0 1.29896078374e-13)
(-88.322 0 -1.15137089325e-13)
(-88.322 0 -4.2695324282e-14)
(-88.322 0 1.54549156747e-13)
(-88.322 0 -9.37610575411e-14)
(-88.322 0 -6.83902225028e-14)
(-88.322 0 -3.93799245704e-13)
(-88.322 0 -6.87825986557e-14)
(-88.322 0 -1.15259695111e-13)
(-88.322 0 1.81039722294e-13)
(-88.322 0 -8.48392518599e-14)
(-88.322 0 -9.39018236622e-14)
(-88.322 0 1.49364522209e-14)
(-88.322 0 -8.73287232934e-14)
(-88.322 0 -4.4981174134e-14)
(-88.322 0 -1.87766291609e-13)
(-88.322 0 -4.0668706157e-14)
(-88.322 0 3.81326576981e-14)
(-88.322 0 -6.68937356117e-14)
(-88.322 0 -1.22776474242e-13)
(-88.322 0 -2.6403904051e-14)
(-88.322 0 -5.70961877589e-14)
(-88.322 0 -1.9530659449e-13)
(-88.322 0 -2.89974727838e-13)
(-88.322 0 -1.2328524591e-13)
(-88.322 0 -5.19208686255e-14)
(-88.322 0 -3.34954490547e-13)
(-88.322 0 -1.79337543732e-14)
(-88.322 0 -1.79479909468e-13)
(-88.322 0 -2.89973034128e-13)
(-88.322 0 -5.26135019256e-14)
(-88.322 0 -6.2759671756e-14)
(-88.322 0 -1.08004688272e-13)
(-88.322 0 -1.07913227931e-13)
(-88.322 0 -1.07795138705e-13)
(-88.322 0 9.50265412055e-16)
(-88.322 0 3.6910551829e-13)
(-88.322 0 -2.88976944451e-13)
(-88.322 0 -9.83675723953e-14)
(-88.322 0 1.30163684556e-13)
(-88.322 0 -8.25055076526e-14)
(-88.322 0 -9.86997277478e-14)
(-88.322 0 -3.55081599386e-14)
(-88.322 0 4.06204071931e-13)
(-88.322 0 -1.37456235301e-13)
(-88.322 0 2.09140253303e-14)
(-88.322 0 -9.73967001781e-14)
(-88.322 0 2.39568600534e-13)
(-88.322 0 -5.07428933118e-14)
(-88.322 0 1.29850630489e-13)
(-88.322 0 -8.2700848874e-14)
(-88.322 0 -9.90748845156e-14)
(-88.322 0 -2.89908202672e-13)
(-88.322 0 -5.17463223992e-14)
(-88.322 0 1.45064286582e-13)
(-88.322 0 2.30448066211e-14)
(-88.322 0 3.70908096219e-13)
(-88.322 0 1.31638905977e-16)
(-88.322 0 -2.32166052734e-13)
(-88.322 0 1.25156701379e-13)
(-88.322 0 -1.04727735778e-16)
(-88.322 0 3.0708844428e-14)
(-88.322 0 -5.03359337276e-14)
(-88.322 0 -8.29281330406e-14)
(-88.322 0 -2.47175334485e-14)
(-88.322 0 -3.65971213817e-14)
(-88.322 0 -2.91311629608e-13)
(-88.322 0 1.72894576749e-13)
(-88.322 0 -3.14384288349e-13)
(-88.322 0 1.87866502785e-13)
(-88.322 0 2.33522149884e-14)
(-88.322 0 -7.70471507571e-14)
(-88.322 0 -1.59864301052e-13)
(-88.322 0 -6.9088783788e-14)
(-88.322 0 -9.7913658112e-14)
(-88.322 0 -4.5861611646e-13)
(-88.322 0 -1.80893875043e-14)
(-88.322 0 6.8828611111e-14)
(-88.322 0 1.42638423369e-13)
(-88.322 0 -1.04866055429e-14)
(-88.322 0 -3.09356698367e-13)
(-88.322 0 -6.22838333374e-14)
(-88.322 0 2.01968991015e-13)
(-88.322 0 1.59525370859e-13)
(-88.322 0 1.01013335625e-13)
(-88.322 0 -3.05976805942e-13)
(-88.322 0 -6.07812302713e-14)
(-88.322 0 2.99235275522e-14)
(-88.322 0 1.59278936053e-13)
(-88.322 0 1.3808695409e-13)
(-88.322 0 -1.22701386431e-13)
(-88.322 0 1.5890857813e-13)
(-88.322 0 8.26675392438e-14)
(-88.322 0 -1.19937816261e-13)
(-88.322 0 5.98404684543e-14)
(-88.322 0 2.03503021811e-14)
(-88.322 0 -1.49422767014e-13)
(-88.322 0 1.1924725305e-13)
(-88.322 0 2.02201593856e-13)
(-88.322 0 2.35003017005e-13)
(-88.322 0 1.6973213787e-13)
(-88.322 0 -2.44177185478e-13)
(-88.322 0 2.00811434316e-13)
(-88.322 0 6.21053351211e-14)
(-88.322 0 9.09856314005e-14)
(-88.322 0 5.19355474456e-14)
(-88.322 0 -6.87441138004e-14)
(-88.322 0 -2.75069797442e-14)
(-88.322 0 -9.40804159735e-14)
(-88.322 0 1.51630141636e-13)
(-88.322 0 2.01957040949e-13)
(-88.322 0 1.02580581957e-13)
(-88.322 0 8.26731849438e-14)
(-88.322 0 -6.86589578248e-14)
(-88.322 0 -8.98924356824e-14)
(-88.322 0 2.00778406971e-13)
(-88.322 0 -1.19145348165e-13)
(-88.322 0 2.32224956204e-13)
(-88.322 0 1.92019573831e-13)
(-88.322 0 4.06440814953e-13)
(-88.322 0 1.19634265788e-13)
(-88.322 0 -9.92914912072e-14)
(-88.322 0 -2.2084096664e-16)
(-88.322 0 2.90071363404e-14)
(-88.322 0 1.07877001356e-13)
(-88.322 0 1.00487062286e-13)
(-88.322 0 5.98350556842e-14)
(-88.322 0 -1.54946148301e-13)
(-88.322 0 -1.0437309172e-13)
(-88.322 0 8.47973795846e-14)
(-88.322 0 -5.00127161063e-14)
(-88.322 0 -1.75204891301e-16)
(-88.322 0 -7.89552091812e-14)
(-88.322 0 3.12677687322e-16)
(-88.322 0 1.65592146029e-13)
(-88.322 0 6.77884849733e-14)
(-88.322 0 1.4949719616e-14)
(-88.322 0 -2.17930420078e-13)
(-88.322 0 1.42473945308e-14)
(-88.322 0 -1.95039552878e-13)
(-88.322 0 -1.62244245905e-14)
(-88.322 0 -6.75892858568e-14)
(-88.322 0 -4.90913378595e-14)
(-88.322 0 -3.08003988637e-14)
(-88.322 0 5.00527064816e-14)
(-88.322 0 -1.61293886398e-14)
(-88.322 0 6.70090960825e-14)
(-88.322 0 1.72022598377e-14)
(-88.322 0 2.65490926371e-14)
(-88.322 0 6.98220661284e-14)
(-88.322 0 8.10258637666e-14)
(-88.322 0 2.89463603794e-13)
(-88.322 0 1.77330497367e-14)
(-88.322 0 5.22122808427e-14)
(-88.322 0 3.35008877457e-13)
(-88.322 0 1.50440028067e-13)
(-88.322 0 1.80042033002e-13)
(-88.322 0 2.89799711137e-13)
(-88.322 0 7.0571250524e-16)
(-88.322 0 8.33631835839e-14)
(-88.322 0 2.89903780207e-13)
(-88.322 0 1.39194452248e-13)
(-88.322 0 1.38806592656e-13)
(-88.322 0 -1.8047421134e-16)
(-88.322 0 -2.38685707142e-13)
(-88.322 0 2.88793271009e-13)
(-88.322 0 3.65251387062e-14)
(-88.322 0 -1.30340394968e-13)
(-88.322 0 -1.43965351069e-16)
(-88.322 0 3.63920883752e-14)
(-88.322 0 3.53248628773e-14)
(-88.322 0 -4.06337122262e-13)
(-88.322 0 1.37424337095e-13)
(-88.322 0 4.15147143082e-16)
(-88.322 0 3.56275664945e-14)
(-88.322 0 -2.39761871665e-13)
(-88.322 0 3.05495415918e-14)
(-88.322 0 -1.30254015757e-13)
(-88.322 0 -1.43494876065e-16)
(-88.322 0 3.70045527347e-14)
(-88.322 0 2.89776093292e-13)
(-88.322 0 3.17454890507e-14)
(-88.322 0 -1.44303058026e-13)
(-88.322 0 -1.28881922457e-15)
(-88.322 0 -4.06450412643e-13)
(-88.322 0 1.37715937503e-13)
(-88.322 0 8.29967776512e-14)
(-88.322 0 -3.85695407864e-16)
(-88.322 0 -2.05213010259e-13)
(-88.322 0 -4.91364093648e-16)
(-88.322 0 -4.72069873384e-16)
(-88.322 0 8.27880388629e-14)
(-88.322 0 1.72695283537e-13)
(-88.322 0 -4.84131010945e-14)
(-88.322 0 2.7405592381e-13)
(-88.322 0 -1.41346028534e-13)
(-88.322 0 2.19028132356e-13)
(-88.322 0 -1.89998130931e-13)
(-88.322 0 -1.89118248579e-13)
(-88.322 0 8.8623376408e-15)
(-88.322 0 3.7301422462e-14)
(-88.322 0 1.30248087772e-13)
(-88.322 0 -1.1106475179e-13)
(-88.322 0 3.08713464942e-14)
(-88.322 0 3.29349439545e-14)
(-88.322 0 1.85265528776e-14)
(-88.322 0 -1.42484483948e-13)
(-88.322 0 4.08554847333e-14)
(-88.322 0 2.59242453755e-13)
(-88.322 0 9.55873474097e-14)
(-88.322 0 -2.57355096231e-13)
(-88.322 0 -1.59734638141e-13)
(-88.322 0 -1.27546620302e-13)
(-88.322 0 2.5527418529e-13)
(-88.322 0 -2.17597511966e-14)
(-88.322 0 -8.10099617115e-14)
(-88.322 0 -1.5962849898e-13)
(-88.322 0 -1.89700884823e-13)
(-88.322 0 7.28892808662e-14)
(-88.322 0 -1.58965129225e-13)
(-88.322 0 -5.19329127856e-14)
(-88.322 0 6.90418303826e-14)
(-88.322 0 -9.07870909491e-14)
(-88.322 0 -8.24643881373e-14)
(-88.322 0 9.832193632e-14)
(-88.322 0 -1.9054247051e-13)
(-88.322 0 -2.57719526168e-13)
(-88.322 0 -1.08968879744e-13)
(-88.322 0 3.08417347975e-13)
(-88.322 0 2.75120608743e-14)
(-88.322 0 -2.56647972301e-13)
(-88.322 0 1.19507896202e-13)
(-88.322 0 -2.84366383511e-14)
(-88.322 0 -1.07421581553e-13)
(-88.322 0 9.92084053216e-14)
(-88.322 0 -4.43275902591e-14)
(-88.322 0 3.86642003571e-14)
(-88.322 0 -1.01171132941e-13)
(-88.322 0 -2.57449003041e-13)
(-88.322 0 -9.67837653436e-14)
(-88.322 0 -5.19353592556e-14)
(-88.322 0 9.94447719633e-14)
(-88.322 0 1.52114824984e-13)
(-88.322 0 -2.56342728118e-13)
(-88.322 0 6.82701572819e-14)
(-88.322 0 -2.00363259828e-13)
(-88.322 0 2.85961952438e-13)
(-88.322 0 -3.54927471775e-13)
(-88.322 0 -1.91563871742e-13)
(-88.322 0 4.36779583743e-14)
(-88.322 0 -6.20564057208e-14)
(-88.322 0 -7.90868480872e-15)
(-88.322 0 3.68356522085e-14)
(-88.322 0 -1.00116422078e-13)
(-88.322 0 -9.08997806831e-14)
(-88.322 0 3.17573662264e-14)
(-88.322 0 -6.79619961546e-14)
(-88.322 0 -2.95044284191e-14)
(-88.322 0 -5.5359005856e-14)
(-88.322 0 -1.06352662345e-13)
(-88.322 0 -3.59077814066e-14)
(-88.322 0 6.71253034084e-14)
(-88.322 0 2.03151106508e-16)
(-88.322 0 -1.47155171593e-15)
(-88.322 0 7.03546438324e-14)
(-88.322 0 9.84949770263e-14)
(-88.322 0 -1.38330566047e-13)
(-88.322 0 -1.37603117597e-13)
(-88.322 0 8.55646302203e-14)
(-88.322 0 6.6124603076e-14)
(-88.322 0 4.88390691626e-14)
(-88.322 0 6.20324114956e-14)
(-88.322 0 -1.05413217858e-13)
(-88.322 0 1.61940319052e-14)
(-88.322 0 -3.10240626803e-14)
(-88.322 0 -1.76800742513e-14)
(-88.322 0 -1.49821447532e-13)
(-88.322 0 7.57351841623e-15)
(-88.322 0 1.76175481233e-13)
(-88.322 0 1.91859706424e-16)
(-88.322 0 -1.78002335672e-14)
(-88.322 0 -1.81693494359e-13)
(-88.322 0 2.5318518218e-14)
(-88.322 0 -3.11423212772e-13)
(-88.322 0 -4.83177828587e-16)
(-88.322 0 7.92279905882e-17)
(-88.322 0 3.13676035279e-14)
(-88.322 0 -2.14536601593e-17)
(-88.322 0 -2.80967672086e-16)
(-88.322 0 -2.53303741881e-16)
(-88.322 0 -7.0176051521e-16)
(-88.322 0 -2.00225787032e-13)
(-88.322 0 -6.75508010015e-16)
(-88.322 0 1.28157390952e-16)
(-88.322 0 -2.83790522107e-16)
(-88.322 0 2.31850081721e-16)
(-88.322 0 8.26420394986e-14)
(-88.322 0 7.06653455247e-17)
(-88.322 0 -9.40009056979e-17)
(-88.322 0 5.98444204443e-17)
(-88.322 0 5.16581553835e-17)
(-88.322 0 -2.14035075239e-14)
(-88.322 0 -3.49186547593e-16)
(-88.322 0 7.90398005868e-17)
(-88.322 0 -4.23427503144e-17)
(-88.322 0 3.85695407864e-16)
(-88.322 0 8.27480845644e-14)
(-88.322 0 -8.48736906302e-17)
(-88.322 0 -1.66548151237e-17)
(-88.322 0 -2.13783841587e-16)
(-88.322 0 -1.39072411033e-16)
(-88.322 0 -2.17901438818e-14)
(-88.322 0 4.83648303591e-17)
(-88.322 0 -9.56946157105e-17)
(-88.322 0 3.94540337929e-16)
(-88.322 0 1.70475770661e-13)
(-88.322 0 2.05957301714e-13)
(-88.322 0 3.14203908233e-14)
(-88.322 0 -1.19429253987e-13)
(-88.322 0 1.48112922234e-13)
(-88.322 0 -1.94397354498e-13)
(-88.322 0 1.32421964573e-13)
(-88.322 0 1.65223858197e-13)
(-88.322 0 -2.19465297729e-14)
(-88.322 0 9.46507257728e-14)
(-88.322 0 2.69045835498e-15)
(-88.322 0 2.17701204656e-13)
(-88.322 0 6.71962510389e-14)
(-88.322 0 3.61400266873e-13)
(-88.322 0 1.2057399256e-13)
(-88.322 0 1.23948803855e-13)
(-88.322 0 3.33427234591e-13)
(-88.322 0 2.90473054962e-13)
(-88.322 0 -8.66757980835e-14)
(-88.322 0 -6.89016288316e-14)
(-88.322 0 -1.24173032242e-13)
(-88.322 0 -1.42348046197e-13)
(-88.322 0 -8.64072509515e-14)
(-88.322 0 2.47217677236e-14)
(-88.322 0 1.60190152039e-14)
(-88.322 0 -2.84710112549e-13)
(-88.322 0 7.52165325185e-14)
(-88.322 0 -1.94418055398e-13)
(-88.322 0 -6.86205670645e-14)
(-88.322 0 1.69545077009e-14)
(-88.322 0 1.0645908379e-13)
(-88.322 0 7.67094437995e-14)
(-88.322 0 8.69908281459e-16)
(-88.322 0 2.05669371012e-13)
(-88.322 0 -6.77863207883e-14)
(-88.322 0 6.19915742653e-14)
(-88.322 0 -7.03171940221e-16)
(-88.322 0 -2.45034579124e-13)
(-88.322 0 -9.40394846482e-15)
(-88.322 0 1.07880106491e-13)
(-88.322 0 2.00018683935e-14)
(-88.322 0 -4.86971174446e-13)
(-88.322 0 9.74641662936e-14)
(-88.322 0 2.48011839041e-14)
(-88.322 0 -9.91715200813e-14)
(-88.322 0 -2.57632111913e-16)
(-88.322 0 2.44392004365e-14)
(-88.322 0 -1.44453986408e-13)
(-88.322 0 1.0781480456e-13)
(-88.322 0 8.73768999337e-14)
(-88.322 0 1.2928653096e-16)
(-88.322 0 2.51155553015e-14)
(-88.322 0 1.00042557503e-13)
(-88.322 0 3.17632730058e-14)
(-88.322 0 5.2117150797e-14)
(-88.322 0 4.05267168009e-16)
(-88.322 0 2.46924100833e-14)
(-88.322 0 -6.83295312273e-14)
(-88.322 0 3.03103521e-14)
(-88.322 0 -3.39494668426e-13)
(-88.322 0 -3.24063182406e-16)
(-88.322 0 1.90390224799e-13)
(-88.322 0 -9.12875822578e-14)
(-88.322 0 8.2431078507e-14)
(-88.322 0 -2.11149181568e-16)
(-88.322 0 -1.44915522386e-13)
(-88.322 0 -1.14701805852e-16)
(-88.322 0 8.28791071765e-14)
(-88.322 0 1.20928280853e-13)
(-88.322 0 2.21080626606e-13)
(-88.322 0 1.32431185883e-13)
(-88.322 0 -1.59824216582e-13)