/*--------------------------------*- C++ -*----------------------------------*\
  =========                 |
  \\      /  F ield         | OpenFOAM: The Open Source CFD Toolbox
   \\    /   O peration     | Website:  https://openfoam.org
    \\  /    A nd           | Version:  6
     \\/     M anipulation  |
\*---------------------------------------------------------------------------*/
FoamFile
{
    version     2.0;
    format      ascii;
    class       volScalarField;
    location    "4.3e-05";
    object      p;
}
// * * * * * * * * * * * * * * * * * * * * * * * * * * * * * * * * * * * * * //

dimensions      [1 -1 -2 0 0 0 0];

internalField   nonuniform List<scalar> 
8192
(
6000000.00062
5999999.9993
6000000.00062
6000000.00042
6000000.00333
5999999.99722
6000000.00096
6000000.00016
6000000.00005
5999999.99997
6000000.00019
6000000.00004
6000000.0008
6000000.00124
6000000.0008
6000000.00035
6000000.00074
5999999.99914
5999999.99909
6000000.0006
5999999.99898
5999999.9976
6000000.00162
6000000.00007
5999999.99968
6000000.00006
5999999.99915
5999999.99932
5999999.99837
5999999.99976
5999999.99985
6000000.0002
5999999.99696
5999999.99404
6000000.00726
6000000.00744
5999999.99917
6000000.00488
5999999.9989
5999999.99795
6000000.00187
5999999.99862
5999999.9998
6000000.00001
6000000.0002
6000000.00011
6000000.00001
6000000.00022
5999999.99937
6000000.00095
5999999.99803
6000000.00018
6000000.00258
5999999.99638
5999999.99771
6000000.00178
6000000.00031
6000000.00265
5999999.99961
6000000.00446
5999999.99711
5999999.99772
5999999.9973
6000000.00106
6000000.00013
6000000.00134
5999999.99944
6000000.00295
5999999.99683
6000000.00245
5999999.99922
5999999.99805
6000000.00228
6000000.00311
6000000.00707
5999999.99699
5999999.99398
6000000.00678
6000000.00271
5999999.99601
5999999.99611
5999999.99352
6000000.00316
6000000.00551
6000000
5999999.99898
6000000.00607
6000000.00503
5999999.99829
5999999.9975
5999999.99899
5999999.99895
5999999.99762
6000000.00291
5999999.99762
6000000.00114
6000000.00147
5999999.99976
6000000.0035
5999999.99844
5999999.99994
5999999.99987
5999999.99969
6000000.00001
5999999.99942
6000000.00027
6000000.00009
5999999.99999
5999999.99998
5999999.99998
6000000.00002
6000000.00004
5999999.99973
6000000.00051
5999999.99993
6000000.00089
6000000.00027
5999999.99931
6000000.00064
5999999.99971
5999999.9993
5999999.99902
6000000
5999999.99984
6000000.00015
5999999.99976
6000000.00034
6000000.00049
6000000.00538
6000000.00049
5999999.9987
6000000.00061
5999999.99939
5999999.9994
6000000.00006
5999999.99997
5999999.99991
6000000.00086
5999999.99867
6000000.0036
6000000.00089
6000000.00305
6000000.00434
5999999.99724
5999999.99666
5999999.99792
6000000.00227
6000000.00216
6000000.00014
5999999.99972
5999999.99896
6000000.00084
5999999.99565
6000000.00149
5999999.99648
5999999.99675
6000000.00083
6000000.00021
5999999.999
5999999.99932
5999999.99983
5999999.99981
6000000.00035
6000000.00064
5999999.99972
6000000.00242
6000000.00032
6000000.00058
5999999.99909
6000000.00031
5999999.99827
6000000.00277
6000000.00237
6000000.00291
6000000.00201
6000000.004
6000000.00229
6000000.00113
5999999.99474
6000000.00201
6000000.00129
5999999.99861
6000000.00081
5999999.99848
6000000.00246
6000000.00117
6000000.00224
5999999.99465
5999999.99204
6000000.00186
6000000.00604
6000000.00387
5999999.99963
5999999.99996
6000000.00013
6000000.00004
5999999.99993
6000000.00001
5999999.99999
6000000.00001
6000000.00015
6000000.00002
6000000.00017
5999999.9984
5999999.99818
6000000.00212
5999999.99931
6000000.00002
6000000.00003
5999999.99998
6000000.00004
6000000.00016
6000000.00009
5999999.99946
5999999.99997
6000000.00003
5999999.9999
5999999.99996
5999999.99991
5999999.99727
6000000.00011
6000000.00132
5999999.99744
6000000.00081
6000000.00724
5999999.99447
5999999.99688
6000000.00486
6000000.00892
5999999.99157
5999999.99664
6000000.00185
6000000.00353
5999999.99642
6000000.00292
5999999.99984
6000000.00385
5999999.99837
6000000.00671
6000000.00392
5999999.99291
6000000.00014
6000000.00507
5999999.99799
6000000.00484
5999999.99527
5999999.99908
6000000.00174
6000000.00233
6000000.00301
6000000.00078
6000000.00183
6000000.00046
5999999.99906
5999999.99944
5999999.99941
5999999.99973
5999999.99906
6000000.00031
5999999.99845
6000000.00292
5999999.9989
5999999.99985
5999999.99951
5999999.99991
5999999.99993
6000000.00007
6000000.00045
6000000.00132
5999999.99776
6000000.00043
6000000.00028
6000000.00016
6000000.00195
5999999.99618
5999999.99756
6000000.00529
6000000.00182
5999999.99602
5999999.99554
5999999.99899
5999999.99561
5999999.99843
5999999.99506
6000000.00104
6000000.00379
5999999.997
6000000.0006
5999999.99918
6000000.00117
5999999.99997
5999999.99934
6000000.00149
5999999.99785
6000000.00107
5999999.99989
6000000.00001
6000000.00011
6000000.00001
6000000.00001
6000000.00002
6000000.00018
5999999.99904
6000000.00146
5999999.99756
5999999.99961
5999999.99914
6000000.00057
6000000.00394
5999999.99811
5999999.9951
6000000.00195
6000000.00455
5999999.99838
6000000.00337
5999999.99857
6000000.00518
5999999.99717
5999999.99745
5999999.99681
6000000.00216
6000000.00136
5999999.99704
6000000.00153
6000000.00053
6000000.00078
6000000.00044
5999999.99973
6000000
6000000.00029
5999999.99886
6000000.00256
6000000.0022
6000000.001
6000000.00041
5999999.99974
5999999.99797
5999999.99803
6000000.00047
6000000.00044
6000000.00004
5999999.99919
5999999.99858
6000000.0012
5999999.99755
6000000.00071
5999999.99725
5999999.99489
5999999.9964
6000000.00299
5999999.99766
5999999.9963
6000000.00751
5999999.99896
6000000.00339
6000000.00041
5999999.9978
6000000.00371
5999999.99687
6000000.00279
5999999.99972
5999999.99968
6000000.00031
6000000.00001
6000000.0002
6000000.00004
5999999.99998
6000000.00158
5999999.99873
6000000.00253
6000000.00062
5999999.99857
6000000.00166
5999999.99972
5999999.99979
6000000.00409
5999999.99913
6000000.00273
6000000.00345
5999999.99379
5999999.994
5999999.99597
5999999.99881
6000000.00041
6000000.00108
6000000.00145
5999999.9958
5999999.99216
6000000.0018
5999999.99692
5999999.99843
6000000.0049
5999999.99868
5999999.99889
6000000.00137
5999999.99752
5999999.99808
6000000.00608
5999999.99582
5999999.99842
5999999.99413
6000000.00092
6000000.0056
6000000.00025
5999999.99793
5999999.99178
6000000.00278
5999999.99995
6000000.00323
5999999.99843
5999999.99725
6000000.00208
5999999.99517
5999999.99466
6000000.00003
6000000.00306
5999999.99838
5999999.99814
5999999.99777
6000000.00166
6000000.00199
5999999.99872
6000000.00103
5999999.99914
5999999.99971
6000000.00041
6000000
5999999.99998
6000000.00003
5999999.99967
6000000.00089
5999999.99703
6000000.00057
6000000.00003
5999999.99972
5999999.998
6000000.00094
6000000.00058
5999999.99935
6000000.00057
6000000.00113
5999999.99851
5999999.99932
6000000.00022
5999999.9995
5999999.9981
5999999.99731
5999999.99882
5999999.99704
6000000.00143
6000000.00149
6000000.00064
6000000.00012
5999999.99964
6000000.00157
5999999.99847
6000000.00249
6000000.00204
5999999.995
6000000.00422
6000000.00175
6000000.00044
6000000.00106
5999999.99888
6000000.00197
5999999.99929
5999999.99958
6000000.00017
6000000.00002
5999999.99996
5999999.99816
6000000.00216
5999999.99786
5999999.99961
6000000.00091
5999999.99789
6000000.00224
5999999.99773
6000000.00125
5999999.99956
5999999.9997
5999999.99846
6000000.00244
6000000.00658
5999999.99837
5999999.99836
6000000.00044
6000000.00217
5999999.99917
5999999.99827
6000000.0036
5999999.99894
5999999.99998
5999999.99994
6000000.00045
6000000.00207
5999999.99824
6000000.00319
5999999.99888
5999999.9988
6000000.00145
5999999.99976
5999999.99974
6000000.0024
6000000.00112
6000000.00179
5999999.9997
5999999.99882
5999999.99951
5999999.99653
5999999.996
6000000.00183
6000000.00033
5999999.99885
5999999.99973
5999999.99929
5999999.99992
5999999.99906
6000000.00013
5999999.99953
5999999.99997
6000000.00028
6000000.00001
6000000.00006
5999999.99977
6000000.00018
6000000.00005
5999999.99991
5999999.99989
5999999.9999
6000000.00006
6000000.00004
5999999.9999
5999999.99989
5999999.99983
6000000.00001
5999999.99988
5999999.99993
5999999.99988
5999999.99993
6000000.00001
6000000.00001
5999999.99988
5999999.99998
6000000.00002
6000000.00009
5999999.99867
6000000.00234
5999999.99841
5999999.99957
5999999.99963
5999999.99963
6000000.00003
5999999.99998
6000000.00001
6000000.00004
6000000.0002
6000000.00011
6000000.00001
6000000.00001
5999999.99993
5999999.99799
6000000.00249
6000000.00124
5999999.9995
5999999.9945
5999999.99266
6000000.00208
6000000.00413
6000000.00142
6000000.00409
5999999.99677
6000000.0043
5999999.99407
6000000.00045
5999999.99692
6000000.00053
6000000.00052
6000000.00152
5999999.99968
6000000.00159
5999999.99753
6000000.00059
6000000.00023
6000000.00002
6000000.00018
6000000.00002
5999999.99993
5999999.99928
6000000.00132
5999999.99998
6000000.00001
6000000.00001
5999999.99993
5999999.99993
6000000.00002
6000000.00016
5999999.99956
5999999.9992
5999999.99915
5999999.9988
5999999.99985
5999999.99924
5999999.99831
6000000.00091
6000000.00076
6000000.00052
6000000.00168
5999999.99815
5999999.997
6000000.00717
6000000.00347
6000000.00096
6000000.00347
5999999.99769
5999999.99955
6000000.00005
5999999.99982
6000000.00005
6000000.00006
6000000.00042
5999999.99987
6000000.00157
5999999.99912
5999999.99939
5999999.99986
5999999.99974
6000000.00042
6000000.00352
6000000.00001
5999999.9979
6000000.00332
6000000.00177
6000000.00123
6000000.00085
5999999.99764
5999999.99877
6000000.00503
6000000.0036
6000000.00288
5999999.99846
5999999.99796
6000000.00209
5999999.99979
5999999.99877
5999999.9981
6000000.00232
6000000.00143
6000000.00033
6000000.00085
5999999.99935
6000000.00032
5999999.9997
6000000.00049
6000000.00052
6000000.0005
6000000.00045
5999999.99982
5999999.99918
6000000.00199
6000000.00115
5999999.99454
5999999.99568
6000000.00363
6000000.0016
6000000.00036
5999999.99858
6000000.00211
5999999.99802
6000000.00079
6000000.00166
6000000.00215
5999999.99495
6000000.0031
6000000.00186
6000000.00529
5999999.99515
5999999.99745
6000000.00157
6000000.00102
5999999.99451
5999999.99882
6000000.00241
6000000.00562
5999999.99872
6000000.00197
6000000.0011
6000000.00489
5999999.99702
6000000.00099
6000000.00143
5999999.99651
6000000.00305
6000000.0035
6000000.00521
6000000.00847
5999999.99507
5999999.99766
6000000.00405
6000000.0052
5999999.9944
5999999.99421
6000000.00203
5999999.99758
6000000.00001
6000000.00027
5999999.9977
6000000.00292
5999999.9982
6000000.00179
5999999.99727
5999999.99633
6000000.00251
6000000.00373
5999999.99953
6000000.00391
6000000.00176
6000000.00078
5999999.99941
5999999.99999
5999999.99878
6000000.00357
6000000.00796
5999999.9965
5999999.99897
5999999.99184
6000000.00482
6000000.00555
5999999.99602
5999999.99653
5999999.99628
5999999.99773
5999999.9964
5999999.99996
5999999.99935
6000000.00015
5999999.99991
5999999.99951
6000000.00206
5999999.99581
5999999.9965
5999999.99695
6000000.00451
5999999.99984
5999999.99988
6000000.00086
5999999.99937
6000000.00165
5999999.99952
6000000.00156
6000000.00569
5999999.99636
5999999.99538
5999999.99457
6000000.00236
6000000.00248
5999999.99402
5999999.99818
5999999.99684
6000000.00131
5999999.99834
5999999.99483
6000000.00381
6000000.00282
6000000.00013
6000000.00088
5999999.99997
6000000.00015
6000000.00004
6000000.00004
6000000.00001
5999999.99998
5999999.99993
5999999.99993
6000000.00015
6000000.00007
5999999.99948
6000000.00094
6000000.00411
6000000.00046
6000000.00016
6000000.00175
5999999.99941
6000000.00215
6000000.00023
5999999.99972
5999999.99994
5999999.99998
6000000.0016
5999999.99815
5999999.99789
6000000.00143
5999999.99803
6000000.00037
5999999.99977
5999999.99993
5999999.99988
6000000.00001
5999999.99987
6000000.00004
5999999.99979
5999999.99745
6000000.0023
5999999.99939
5999999.99951
6000000.0002
5999999.99693
6000000.00058
6000000.0005
6000000.00004
6000000.00017
5999999.99916
6000000.00262
6000000.00001
5999999.99993
6000000.00044
5999999.99983
6000000.0004
5999999.99849
6000000.0039
6000000.00286
5999999.99724
5999999.99808
6000000.00178
5999999.998
6000000.00259
5999999.99971
6000000.00001
6000000.00001
5999999.99982
6000000.00002
5999999.99988
6000000.00102
5999999.99802
6000000.00155
6000000.00064
6000000.00039
5999999.99961
6000000.00063
5999999.99751
6000000.00504
6000000.00296
5999999.99602
6000000.00165
6000000.00307
6000000.00389
5999999.99708
5999999.99649
6000000.00209
5999999.99888
5999999.99984
6000000.00007
5999999.99994
5999999.99993
5999999.99998
6000000.00001
5999999.99991
5999999.99994
5999999.99991
6000000.00002
5999999.99903
6000000.00139
5999999.99797
5999999.99938
6000000.00154
5999999.9952
6000000.00435
6000000.00377
6000000.00178
5999999.99903
6000000.00319
6000000.00443
5999999.99832
5999999.99706
6000000.00411
5999999.99984
6000000.00345
6000000.00475
6000000.00065
6000000.00561
6000000.00001
5999999.99994
6000000.00106
6000000.00082
6000000.00003
6000000.00001
6000000.00316
5999999.99912
6000000.00134
6000000.00197
6000000.00352
6000000.00151
5999999.99551
6000000.00093
6000000.00031
5999999.99977
5999999.9994
6000000.00451
6000000.00207
5999999.99862
6000000.00208
5999999.99972
5999999.99981
6000000.00067
5999999.99931
6000000.00142
5999999.99311
6000000.00281
6000000.00219
5999999.99926
5999999.99982
6000000.00035
6000000.00025
6000000.00031
5999999.99999
6000000.00001
6000000
6000000.00001
5999999.99989
6000000.00001
5999999.99988
6000000
6000000.00001
5999999.99989
6000000.00015
5999999.99997
5999999.99988
6000000.00001
6000000
5999999.99945
5999999.9998
6000000.00036
6000000.0008
5999999.99828
5999999.99848
6000000.00068
6000000.00055
5999999.99976
6000000.00011
5999999.99906
6000000.00193
6000000.00139
6000000.00061
6000000.00039
5999999.99962
5999999.99871
6000000.00206
5999999.9955
6000000.00631
5999999.99675
5999999.99591
6000000.00444
6000000.00293
6000000.00507
6000000.00009
6000000.00013
5999999.99589
5999999.99555
5999999.99662
6000000.00084
5999999.99758
6000000.00359
5999999.99974
5999999.99843
6000000.00071
5999999.99808
6000000.00093
5999999.99811
6000000.00375
5999999.99515
5999999.99658
6000000.00495
5999999.9961
5999999.99667
5999999.99848
6000000.00084
6000000.00094
6000000.00074
6000000.00001
6000000.00075
5999999.99975
6000000.00161
5999999.99588
6000000.00094
6000000.00051
5999999.99998
5999999.9976
5999999.99943
5999999.99973
5999999.99777
5999999.99906
6000000.00061
5999999.99996
6000000.00071
6000000.0015
5999999.99874
5999999.99905
6000000.00294
5999999.99935
5999999.99994
5999999.99998
6000000.00001
6000000.00001
6000000.00011
6000000.00001
6000000.00001
6000000.00013
6000000.00037
5999999.99772
6000000.0002
5999999.99997
6000000.00001
6000000.00004
6000000.00067
5999999.99845
6000000.0023
6000000.00155
5999999.99535
6000000.00639
5999999.99423
5999999.99225
6000000.00332
6000000.00443
5999999.99407
5999999.99797
5999999.99838
5999999.99984
6000000.00126
5999999.99863
6000000.00145
5999999.99746
5999999.99819
5999999.99968
5999999.99871
6000000.00156
5999999.99757
6000000.00174
6000000.00295
5999999.99565
5999999.99671
5999999.99605
5999999.99974
6000000.00485
6000000.0016
5999999.99634
5999999.99273
6000000.00395
6000000.00382
5999999.99486
5999999.99843
6000000.00401
6000000.00364
5999999.99713
5999999.99871
6000000.00256
5999999.99993
6000000.00004
6000000.00001
6000000.00001
6000000
6000000.0014
5999999.99887
5999999.99885
5999999.99954
5999999.99983
6000000.00022
6000000.00003
6000000.00012
5999999.99892
5999999.99808
6000000.00092
6000000.00002
6000000.00002
6000000.00001
6000000.00002
5999999.9997
6000000.00001
6000000.00004
5999999.99996
5999999.99892
6000000.00021
6000000.00235
5999999.99813
5999999.99997
5999999.99994
5999999.99562
6000000.00133
6000000.00057
6000000.00247
6000000.00124
6000000.00044
6000000.00027
6000000.00055
5999999.99796
6000000.00315
5999999.99794
6000000.00179
6000000.00173
6000000.00406
5999999.99956
5999999.99945
6000000.00561
6000000.00223
6000000.00208
6000000.00167
5999999.99633
5999999.99917
6000000.00152
6000000.00034
5999999.99788
5999999.99818
6000000.00097
5999999.99689
5999999.99956
5999999.99765
6000000.0001
6000000.00194
5999999.99958
5999999.99903
5999999.99897
5999999.99991
5999999.99987
6000000.0002
6000000.00006
6000000.00006
5999999.99969
6000000.00088
6000000.00122
5999999.99715
5999999.99997
6000000.00009
6000000.00001
6000000.00007
6000000.00003
5999999.99997
6000000.00098
5999999.99886
6000000.00139
6000000.00121
5999999.9974
6000000.00375
5999999.99498
5999999.99947
6000000.00263
6000000.00618
6000000.00314
6000000.00146
6000000.00151
5999999.99457
5999999.99799
5999999.99843
5999999.99973
6000000.0017
6000000.00535
5999999.99424
5999999.9969
5999999.99466
6000000.00556
6000000.00252
6000000.00231
5999999.99924
6000000.00024
6000000.0006
6000000.00109
5999999.99975
5999999.99921
5999999.99989
6000000.00001
6000000
6000000.00039
5999999.99928
6000000.00097
5999999.9991
6000000.00043
5999999.99882
5999999.99532
6000000.00139
6000000.00078
5999999.99561
5999999.99582
6000000.00477
5999999.99776
5999999.99549
6000000.00187
6000000.00607
5999999.99546
6000000.00321
5999999.99917
5999999.99909
6000000.0035
5999999.99988
6000000.00011
6000000.00001
6000000.00001
6000000.00002
6000000.00001
6000000.00002
6000000.00001
6000000.00007
6000000.00017
6000000.00022
6000000.00003
6000000.00001
5999999.99992
6000000.00025
6000000.0017
5999999.997
6000000.00333
6000000.00481
5999999.99896
6000000.00163
6000000.00108
6000000.00142
5999999.99957
6000000.00052
5999999.99473
6000000.00081
5999999.99917
6000000.00153
6000000.00113
5999999.99913
5999999.9988
5999999.9995
5999999.99966
6000000.00004
5999999.99927
6000000.00089
6000000.00213
5999999.99881
5999999.9996
5999999.99965
6000000.00011
6000000.00002
6000000
5999999.99996
5999999.99956
6000000.00043
5999999.99959
5999999.99757
6000000.00269
5999999.99731
6000000.00197
5999999.9995
5999999.99973
5999999.99998
5999999.99934
6000000.00214
5999999.99576
6000000.00181
5999999.99969
5999999.99977
6000000.00002
5999999.99973
5999999.99996
5999999.99994
6000000.00032
5999999.99948
5999999.9991
6000000.00011
5999999.99994
5999999.99993
6000000
6000000.00008
5999999.99994
5999999.99993
6000000
5999999.99994
5999999.99997
6000000.00001
5999999.99993
6000000.00021
6000000.00001
6000000.00013
6000000.00014
6000000.00086
5999999.99893
6000000.00192
5999999.99737
6000000.00142
6000000.00106
6000000.00202
6000000.00237
5999999.99729
5999999.9998
5999999.99838
6000000.00117
5999999.99923
5999999.99833
6000000.00053
5999999.99882
5999999.99948
5999999.99997
6000000.00031
6000000.00296
6000000.0009
6000000.00294
5999999.99916
6000000.00017
6000000.00172
5999999.99558
6000000.00157
5999999.99696
6000000.00368
6000000.00284
5999999.99534
5999999.9966
5999999.99585
6000000.00464
6000000.00184
6000000.00566
5999999.99734
5999999.99699
6000000.00087
5999999.99417
5999999.99576
5999999.99759
5999999.99832
6000000.00081
5999999.99656
5999999.99803
5999999.99293
5999999.99932
5999999.99533
5999999.99785
5999999.99716
5999999.997
5999999.9969
5999999.99572
6000000.00301
6000000.00056
6000000.00065
5999999.99658
6000000.0008
5999999.99977
5999999.99978
6000000.00015
5999999.99976
5999999.99977
5999999.99704
6000000.00388
5999999.99379
5999999.99417
6000000.00166
5999999.9952
5999999.99525
6000000.00562
5999999.99556
5999999.99433
6000000.00044
6000000.0013
6000000.00007
6000000.00017
6000000.00003
6000000.00002
5999999.99992
6000000.00041
5999999.99966
6000000.00039
6000000.00019
6000000.00003
6000000.00003
5999999.99993
5999999.99994
6000000.00008
6000000.00062
5999999.99901
5999999.9995
6000000.00112
5999999.99969
5999999.99994
5999999.99988
5999999.99964
5999999.99921
6000000.00029
6000000.00004
5999999.99936
5999999.99991
5999999.99961
6000000.00012
6000000.00101
5999999.9995
6000000.00074
6000000.00164
6000000.0021
5999999.99733
5999999.99832
6000000.00202
5999999.99992
6000000.0002
6000000.00051
5999999.9981
6000000.00177
6000000.0014
6000000.00037
5999999.99935
6000000.00003
5999999.99791
6000000.00188
6000000.0004
6000000.00125
5999999.99932
5999999.99866
6000000.00387
6000000.00466
5999999.99263
5999999.99689
6000000.00219
6000000.00143
5999999.99888
6000000.00117
6000000.00027
6000000.00242
5999999.99904
6000000.00085
6000000.00008
5999999.99992
6000000
6000000.00003
5999999.99999
5999999.99998
5999999.99999
6000000
6000000.00003
6000000.00011
6000000
6000000
6000000.00001
6000000
6000000.00011
6000000
6000000.00001
5999999.99994
5999999.99996
6000000.00011
5999999.99999
5999999.99995
6000000.00011
6000000
6000000
5999999.99993
6000000.00004
5999999.99994
6000000.00001
6000000.0002
5999999.99965
5999999.99956
5999999.99973
6000000.00019
6000000.00191
5999999.99931
5999999.9999
5999999.99994
6000000.00004
6000000
6000000.00008
5999999.99994
6000000
6000000
5999999.99993
5999999.99967
6000000.00034
5999999.9989
6000000.00193
6000000.00021
5999999.99926
6000000.00132
5999999.9987
6000000.00229
6000000.0038
5999999.999
5999999.99989
6000000.00592
6000000.00099
6000000.00038
6000000.00025
5999999.99988
6000000.00004
6000000.00006
6000000.00018
6000000.00004
6000000.00003
6000000.00002
5999999.99988
6000000.00015
6000000.00015
6000000.0002
6000000.00012
5999999.99989
6000000.00001
5999999.99993
6000000.00001
6000000.00004
6000000.00036
5999999.99867
5999999.99825
6000000.00339
5999999.99806
6000000.00258
5999999.99781
5999999.99914
6000000.0001
5999999.99808
5999999.99917
6000000.00227
5999999.9967
5999999.99489
6000000.00062
5999999.9946
5999999.9933
6000000.00176
5999999.99722
5999999.99953
5999999.99665
6000000.00171
6000000.00141
5999999.99808
6000000.00284
5999999.9985
5999999.99861
6000000.00123
6000000.00138
6000000.00035
5999999.99963
5999999.99998
6000000.00005
5999999.99993
5999999.99996
6000000.00053
5999999.99982
6000000.00091
5999999.99895
5999999.99895
6000000.00028
5999999.99889
5999999.99989
5999999.99817
5999999.99911
5999999.99923
5999999.99999
5999999.99915
6000000.00275
5999999.99938
5999999.99947
5999999.9996
5999999.99999
5999999.99999
5999999.9999
5999999.99992
6000000.00012
5999999.99998
5999999.99999
6000000.00006
5999999.99998
5999999.99998
6000000.00002
5999999.99998
6000000.00006
5999999.99979
6000000.00062
5999999.99808
5999999.99928
6000000.0002
6000000
5999999.99998
5999999.99998
6000000
5999999.99991
5999999.99992
6000000.00002
5999999.99992
5999999.99942
6000000.00049
5999999.99973
6000000.00035
5999999.99988
5999999.99972
6000000.00123
5999999.99957
5999999.9997
5999999.99995
6000000.00002
5999999.99994
5999999.99998
5999999.9999
5999999.99994
5999999.99998
5999999.99991
5999999.99946
6000000.00023
5999999.9992
6000000.00266
5999999.9994
6000000.00011
6000000.00001
5999999.9999
5999999.99976
6000000.00042
5999999.9996
5999999.99598
6000000.00257
6000000.00008
6000000.0001
6000000.00005
6000000.00029
6000000.00083
5999999.99867
6000000.00245
6000000.00357
6000000.00069
5999999.99869
6000000.00284
6000000.00178
5999999.99815
6000000.00357
6000000.0005
6000000.00244
5999999.99706
5999999.99795
6000000.00041
5999999.9991
6000000.00022
5999999.99769
6000000.00272
6000000.00053
5999999.99983
6000000.00019
5999999.99857
6000000.00164
5999999.99887
6000000.00169
5999999.99657
6000000.00388
6000000.00371
5999999.99808
6000000.00182
5999999.99424
5999999.99394
6000000.00336
6000000.00263
6000000.0051
5999999.99827
5999999.99711
6000000.00433
5999999.9969
5999999.99853
5999999.99897
5999999.99912
6000000.00017
5999999.99952
6000000.0001
5999999.99972
5999999.99983
5999999.99999
5999999.99863
6000000.00115
5999999.99989
5999999.99992
6000000.00059
5999999.99943
6000000.00076
5999999.99734
5999999.99973
5999999.99993
5999999.99979
5999999.99904
5999999.99859
6000000.00164
6000000.00065
5999999.99964
6000000.00501
6000000.00227
5999999.99641
6000000.00229
5999999.99885
6000000.00469
6000000.00318
5999999.99689
5999999.99653
5999999.99874
6000000.00617
6000000.00208
5999999.99726
5999999.99751
5999999.99525
6000000.0026
5999999.99666
5999999.99561
5999999.99907
5999999.99465
6000000.00385
5999999.99734
5999999.99725
5999999.99892
6000000.00137
5999999.99777
5999999.99838
6000000.00164
6000000.00106
5999999.9977
5999999.99726
5999999.99671
5999999.99662
5999999.99715
5999999.99781
6000000.00009
5999999.99515
5999999.9943
6000000.00056
5999999.99951
5999999.99634
5999999.99662
5999999.99556
5999999.99485
6000000.00486
5999999.99804
5999999.99398
5999999.99949
5999999.99549
6000000.00169
6000000.00459
5999999.99301
5999999.99476
5999999.99783
6000000.00446
6000000.00158
5999999.99839
6000000.00337
6000000.00373
5999999.99975
6000000.00582
5999999.99611
5999999.99404
6000000.00347
6000000.00123
5999999.99978
5999999.99488
5999999.99659
6000000.00247
5999999.99643
5999999.9987
6000000.00208
5999999.9991
6000000.0028
6000000.00673
6000000.00319
5999999.99973
5999999.99508
5999999.99738
6000000.00595
6000000.00219
5999999.99542
5999999.99747
6000000.00069
6000000.00586
6000000.00102
5999999.99904
6000000.00009
6000000.00194
5999999.99908
5999999.99897
6000000.00366
6000000.0021
5999999.99722
6000000.00263
5999999.99678
5999999.9997
5999999.99753
6000000.00099
6000000.00161
5999999.99434
6000000.00003
6000000.00097
5999999.99444
5999999.99783
6000000.00288
5999999.99831
5999999.99828
6000000.00265
5999999.99904
5999999.99689
5999999.99641
5999999.99877
5999999.99692
5999999.9994
5999999.99799
6000000.00655
5999999.9979
6000000.00069
6000000.00559
5999999.99851
6000000.00187
6000000.0003
6000000.00896
5999999.99735
6000000.00067
6000000.00648
6000000.00684
5999999.99892
5999999.99749
6000000.01019
6000000.00804
6000000.006
5999999.99794
5999999.99778
6000000.00809
6000000.0088
6000000.00183
6000000.00637
6000000.00244
5999999.99459
6000000.00692
6000000.00828
6000000.00023
5999999.99727
6000000.0079
6000000.00252
5999999.99381
6000000.00238
6000000.00206
6000000.00897
6000000.00737
5999999.9976
6000000.00187
6000000.00745
5999999.99603
5999999.99894
6000000.0066
6000000.00966
6000000.00059
6000000.00612
6000000.00589
6000000.00455
5999999.99808
6000000.00118
6000000.00861
6000000.00906
6000000.00993
6000000.00312
6000000.0028
6000000.00602
6000000.00997
5999999.99984
6000000.00264
6000000.00567
5999999.99661
6000000.00548
6000000.00498
6000000.0094
6000000.00406
6000000.00764
6000000.00564
5999999.99334
6000000.00699
6000000.00201
5999999.99818
6000000.00902
5999999.99888
5999999.99973
5999999.99868
6000000.00036
5999999.99841
5999999.99982
5999999.99874
5999999.99971
5999999.99915
5999999.99961
5999999.99753
5999999.99786
5999999.99961
5999999.99801
6000000.00018
5999999.99848
5999999.99885
5999999.99792
6000000.00021
5999999.99781
5999999.99749
5999999.99857
5999999.99977
5999999.99868
5999999.99863
5999999.99969
5999999.99755
5999999.9986
5999999.99933
5999999.99582
5999999.99847
6000000.00028
5999999.99938
5999999.99668
5999999.99921
5999999.99773
5999999.99977
5999999.9988
5999999.99863
5999999.99669
5999999.99922
5999999.99981
5999999.99797
5999999.9994
5999999.99986
5999999.99883
5999999.9989
5999999.99918
5999999.99678
5999999.99665
5999999.99932
5999999.99982
6000000.00003
6000000.00025
5999999.99819
5999999.99905
5999999.99785
5999999.99846
5999999.99835
5999999.99888
5999999.99935
6000000.00031
6000000.00212
5999999.99861
5999999.99941
5999999.99945
5999999.9998
5999999.99964
6000000.00066
5999999.99974
5999999.99956
6000000.00039
5999999.99975
5999999.99968
5999999.99972
5999999.99976
6000000.0004
5999999.99994
5999999.99974
5999999.99963
6000000.00029
6000000.0004
5999999.99983
6000000.00033
5999999.99978
6000000.00042
5999999.99985
5999999.99974
6000000.00027
5999999.99998
6000000.00045
5999999.99984
5999999.99992
5999999.99955
6000000.00029
6000000.0005
6000000.00023
6000000.00054
5999999.99981
6000000.00044
6000000.0005
5999999.99974
6000000.00016
5999999.99979
6000000.00036
6000000.00005
5999999.99957
6000000.00055
6000000.00017
6000000.0004
6000000.00038
5999999.99956
5999999.99971
5999999.99977
6000000.00013
6000000.00008
6000000.0004
6000000.00043
5999999.99974
5999999.99992
6000000.00029
5999999.99998
6000000.0003
6000000.00012
6000000.00011
6000000.00051
5999999.99964
6000000.00052
6000000.00065
6000000.00091
6000000.00091
6000000.00098
6000000.00067
6000000.00098
6000000.0008
6000000.0012
6000000.00065
6000000.0008
6000000.00078
6000000.0008
6000000.00073
6000000.00075
6000000.00083
6000000.00089
6000000.00068
6000000.00088
6000000.00103
6000000.00079
6000000.00098
6000000.00108
6000000.00067
6000000.00096
6000000.00083
6000000.00078
6000000.00068
6000000.00055
6000000.00092
6000000.00083
6000000.00078
6000000.0009
6000000.00084
6000000.00111
6000000.00066
6000000.00089
6000000.00069
6000000.00073
6000000.00058
6000000.0008
6000000.00089
6000000.00095
6000000.00096
6000000.00083
6000000.00088
6000000.00089
6000000.00073
6000000.00092
6000000.00105
6000000.00109
6000000.00072
6000000.00072
6000000.00069
6000000.00089
6000000.00094
6000000.00085
6000000.00093
6000000.00097
6000000.00093
6000000.00091
6000000.00083
6000000.00112
6000000.00126
6000000.00087
5999999.99898
5999999.99881
5999999.99893
5999999.999
5999999.99889
5999999.99931
5999999.99892
5999999.99885
5999999.99879
5999999.99881
5999999.99901
5999999.99912
5999999.99917
5999999.99892
5999999.99875
5999999.9988
5999999.99887
5999999.99901
5999999.99897
5999999.99909
5999999.99894
5999999.99888
5999999.99919
5999999.99912
5999999.99882
5999999.99892
5999999.99935
5999999.99894
5999999.999
5999999.99909
5999999.99903
5999999.99939
5999999.99908
5999999.9991
5999999.99889
5999999.9989
5999999.99919
5999999.99875
5999999.99868
5999999.99877
5999999.99911
5999999.99913
5999999.9989
5999999.99901
5999999.99906
5999999.99896
5999999.9994
5999999.9991
5999999.99888
5999999.99901
5999999.99892
5999999.99881
5999999.99887
5999999.99877
5999999.99897
5999999.99897
5999999.99907
5999999.99908
5999999.99898
5999999.99899
5999999.99892
5999999.99901
5999999.99892
5999999.99887
5999999.99948
5999999.99937
5999999.99945
5999999.99975
5999999.99957
5999999.99967
5999999.99967