/*--------------------------------*- C++ -*----------------------------------*\
  =========                 |
  \\      /  F ield         | OpenFOAM: The Open Source CFD Toolbox
   \\    /   O peration     | Website:  https://openfoam.org
    \\  /    A nd           | Version:  6
     \\/     M anipulation  |
\*---------------------------------------------------------------------------*/
FoamFile
{
    version     2.0;
    format      ascii;
    class       volVectorField;
    location    "4.4e-05";
    object      U;
}
// * * * * * * * * * * * * * * * * * * * * * * * * * * * * * * * * * * * * * //

dimensions      [0 1 -1 0 0 0 0];

internalField   nonuniform List<vector> 
8192
(
(-88.3220000001 0 -2.74013868425e-10)
(-88.3219999996 0 -4.99769689451e-11)
(-88.3220000001 0 -6.72289234578e-11)
(-88.3220000002 0 -1.8520825663e-10)
(-88.3219999996 0 -5.88238358622e-11)
(-88.3219999998 0 2.44671275504e-11)
(-88.3220000002 0 -3.05981030808e-12)
(-88.322 0 5.05491516112e-11)
(-88.322 0 -2.0473999469e-10)
(-88.322 0 -5.21985953176e-10)
(-88.3219999999 0 -5.90883761186e-10)
(-88.322 0 3.12390302747e-10)
(-88.3220000001 0 5.97770186239e-10)
(-88.322 0 -6.16555235304e-10)
(-88.3219999999 0 -5.78663645609e-10)
(-88.3219999999 0 2.95682329123e-10)
(-88.3219999999 0 1.8158929873e-10)
(-88.3219999999 0 4.98335707611e-10)
(-88.3220000001 0 -3.96548112966e-10)
(-88.322 0 -4.50242750077e-10)
(-88.3219999998 0 2.52698569225e-10)
(-88.3220000002 0 3.34888333199e-10)
(-88.3220000002 0 -4.5003321773e-10)
(-88.3219999999 0 -4.87444645716e-10)
(-88.322 0 1.29439315459e-10)
(-88.3219999999 0 1.218744057e-10)
(-88.3219999999 0 1.66141941048e-10)
(-88.3219999999 0 1.32951263819e-10)
(-88.3220000002 0 2.24074584811e-10)
(-88.3220000001 0 -1.0926112489e-10)
(-88.3219999999 0 1.68295790764e-10)
(-88.3219999998 0 -8.39641184831e-12)
(-88.3219999992 0 9.22576223929e-11)
(-88.3220000014 0 4.40317330506e-10)
(-88.322000002 0 -6.36332747058e-10)
(-88.321999999 0 -5.39231461523e-10)
(-88.3219999998 0 -2.817250164e-11)
(-88.3219999996 0 -4.87836480259e-10)
(-88.3219999988 0 1.73182561179e-10)
(-88.3220000005 0 1.2559724815e-10)
(-88.3220000001 0 -1.7322424517e-11)
(-88.3219999999 0 3.06448962423e-11)
(-88.3220000001 0 -1.31230365244e-11)
(-88.322 0 -1.33893730826e-11)
(-88.322 0 -4.83415591599e-11)
(-88.322 0 -2.73738969505e-11)
(-88.322 0 -1.51848005437e-11)
(-88.322 0 -1.12868289487e-11)
(-88.322 0 8.62540624085e-12)
(-88.3219999999 0 -5.79044119686e-11)
(-88.3219999999 0 6.76488124244e-11)
(-88.3220000004 0 -2.45245697255e-11)
(-88.3219999996 0 -1.62034035509e-10)
(-88.3219999995 0 2.57987382925e-10)
(-88.322000001 0 1.49809484482e-10)
(-88.3220000005 0 -2.14900566607e-10)
(-88.3219999999 0 -4.38053462563e-11)
(-88.3219999998 0 -1.3756253527e-10)
(-88.3220000001 0 -3.4695318205e-11)
(-88.3219999993 0 -2.31294833897e-10)
(-88.3219999987 0 2.84383128187e-10)
(-88.3219999998 0 3.52434961543e-10)
(-88.3220000007 0 3.34529757476e-10)
(-88.3220000013 0 3.81791700802e-11)
(-88.322 0 -2.21596777886e-10)
(-88.3219999999 0 -6.61175573363e-11)
(-88.3220000001 0 7.45563563479e-11)
(-88.3219999998 0 4.49481750176e-12)
(-88.322 0 1.52218934798e-10)
(-88.3220000001 0 -9.51797279608e-11)
(-88.3219999997 0 2.57671525486e-11)
(-88.3220000004 0 3.69138056342e-12)
(-88.3220000011 0 -3.41807335349e-13)
(-88.3220000007 0 -4.07564798555e-11)
(-88.3219999984 0 4.29363299014e-11)
(-88.3219999977 0 -1.66873592817e-10)
(-88.3220000017 0 -1.71352270297e-11)
(-88.3220000022 0 -1.43607097715e-10)
(-88.3219999983 0 -2.40703724608e-10)
(-88.3219999986 0 2.3058145773e-10)
(-88.3219999997 0 1.39707281388e-10)
(-88.3220000013 0 1.31027883341e-10)
(-88.3220000018 0 -2.65958577866e-10)
(-88.3219999988 0 -1.60418720088e-10)
(-88.3219999987 0 -2.3236445957e-11)
(-88.3220000012 0 3.96512571026e-11)
(-88.3220000014 0 1.56901021488e-10)
(-88.321999999 0 -5.92251019226e-11)
(-88.3219999988 0 3.70103803863e-10)
(-88.322 0 -2.16512179391e-10)
(-88.3220000001 0 2.91197888041e-10)
(-88.3219999999 0 2.4624783931e-10)
(-88.3220000003 0 -1.14460004283e-11)
(-88.322 0 4.40887379098e-11)
(-88.3219999999 0 4.11805194466e-11)
(-88.3220000003 0 -1.28346710051e-13)
(-88.3219999999 0 -1.63063371208e-10)
(-88.3220000002 0 -3.80656506157e-10)
(-88.322 0 4.29339411586e-10)
(-88.3219999997 0 5.26137153895e-10)
(-88.3220000001 0 -6.55794326383e-12)
(-88.322 0 2.78030767445e-10)
(-88.322 0 -1.74767149784e-10)
(-88.322 0 -1.49177078475e-10)
(-88.322 0 7.28842959953e-11)
(-88.322 0 -4.60617054177e-11)
(-88.322 0 2.9416909718e-11)
(-88.322 0 -1.30270507411e-10)
(-88.322 0 -3.65521761425e-10)
(-88.322 0 -2.87669086608e-10)
(-88.322 0 -2.86773345297e-10)
(-88.322 0 -3.07309363063e-10)
(-88.322 0 -3.19647257258e-10)
(-88.322 0 -1.074976424e-10)
(-88.322 0 2.68085637229e-10)
(-88.3220000001 0 -5.86639409803e-11)
(-88.3219999999 0 4.05199715067e-11)
(-88.322 0 -7.19398970302e-11)
(-88.3220000001 0 -2.34715047818e-10)
(-88.322 0 3.91658543695e-10)
(-88.322 0 -1.29812145634e-10)
(-88.3220000001 0 -1.96812076111e-10)
(-88.322 0 -3.80969538018e-10)
(-88.3219999999 0 6.95129973232e-10)
(-88.322 0 2.52723274338e-10)
(-88.3220000001 0 -7.50357178432e-10)
(-88.3220000001 0 -9.37881707239e-10)
(-88.322 0 -3.91158286472e-10)
(-88.3219999995 0 4.74320959941e-11)
(-88.3219999991 0 5.76545750629e-11)
(-88.322 0 -1.77449528483e-11)
(-88.322 0 1.33572328274e-10)
(-88.3219999999 0 -9.10965395783e-11)
(-88.322 0 9.34764062379e-11)
(-88.322 0 -2.15797324991e-11)
(-88.322 0 -4.94590339288e-11)
(-88.3220000001 0 1.78207937859e-10)
(-88.3219999999 0 4.89769074989e-10)
(-88.3220000002 0 5.50724064194e-10)
(-88.3220000001 0 -2.53188218813e-10)
(-88.322 0 -5.40502624479e-10)
(-88.3220000004 0 4.90323009247e-10)
(-88.3219999991 0 5.22563285285e-10)
(-88.3219999991 0 -3.06797279815e-10)
(-88.3220000001 0 -1.87262832262e-10)
(-88.3220000007 0 -4.59896920861e-10)
(-88.3220000007 0 4.15366944488e-10)
(-88.3219999995 0 4.24866999328e-10)
(-88.3219999994 0 -2.32944044408e-10)
(-88.3219999998 0 -2.24430488989e-10)
(-88.3220000004 0 4.42116016759e-10)
(-88.3219999995 0 4.79769271438e-10)
(-88.3220000003 0 -6.91628349539e-11)
(-88.322 0 -1.12175346332e-10)
(-88.321999999 0 -7.5051089513e-11)
(-88.3220000006 0 5.39626478076e-11)
(-88.3220000006 0 -8.73698192851e-12)
(-88.322 0 6.83861321932e-12)
(-88.322 0 8.99607367029e-11)
(-88.3220000003 0 -1.71897838757e-11)
(-88.322 0 -3.90893546352e-10)
(-88.322 0 3.61419317441e-10)
(-88.3220000001 0 5.09769928004e-10)
(-88.322 0 -2.82511007937e-10)
(-88.3220000003 0 -5.60407372059e-10)
(-88.322 0 7.06127725118e-10)
(-88.3219999997 0 3.51935283216e-10)
(-88.322 0 -3.50379969071e-10)
(-88.322 0 -3.75865789423e-10)
(-88.322 0 1.25824609618e-10)
(-88.3220000003 0 -2.36670052214e-10)
(-88.3220000009 0 -5.44919048989e-11)
(-88.3220000003 0 -2.7244871185e-10)
(-88.3219999998 0 4.83413878129e-11)
(-88.322 0 -4.75172598074e-10)
(-88.3219999999 0 -5.6255466514e-10)
(-88.3219999996 0 3.8949826014e-10)
(-88.3219999988 0 1.23406285956e-11)
(-88.3219999999 0 -2.93403296454e-10)
(-88.3220000008 0 1.41105901386e-10)
(-88.3219999996 0 -3.86254306762e-10)
(-88.322 0 3.48682941928e-10)
(-88.322 0 2.65646996103e-11)
(-88.3220000003 0 -3.05146362327e-10)
(-88.3220000011 0 -3.03460548202e-10)
(-88.3220000004 0 -3.18972725296e-10)
(-88.3219999984 0 -1.51980375743e-10)
(-88.3219999981 0 -1.43046121858e-10)
(-88.3220000017 0 -1.33763727855e-10)
(-88.3220000022 0 7.05123826214e-11)
(-88.3219999999 0 3.90795875365e-11)
(-88.3219999999 0 5.22206415406e-11)
(-88.322 0 5.3510037901e-10)
(-88.322 0 1.53669970417e-10)
(-88.322 0 -2.17711893848e-12)
(-88.322 0 1.24823376708e-10)
(-88.322 0 -1.35210525905e-10)
(-88.322 0 2.72831458038e-11)
(-88.322 0 8.10100981492e-12)
(-88.322 0 2.97491971798e-11)
(-88.322 0 1.25677118245e-11)
(-88.322 0 7.37849388091e-11)
(-88.3219999999 0 -1.18857565192e-11)
(-88.3219999998 0 1.28216325756e-10)
(-88.3220000003 0 -1.60586103832e-13)
(-88.3220000001 0 2.66851473556e-10)
(-88.3219999999 0 2.75640191833e-10)
(-88.322 0 -2.20132535165e-10)
(-88.322 0 -1.33719981302e-10)
(-88.322 0 -2.19458733474e-10)
(-88.322 0 3.70401833781e-10)
(-88.322 0 3.68000241433e-10)
(-88.322 0 -4.16775540438e-10)
(-88.3219999999 0 -5.09179579827e-10)
(-88.322 0 2.85021174249e-10)
(-88.322 0 4.16150733355e-10)
(-88.322 0 -1.63589525705e-10)
(-88.322 0 5.03893161973e-10)
(-88.3219999997 0 -1.87566556622e-10)
(-88.3219999998 0 8.96587300476e-12)
(-88.3220000004 0 -1.06932291125e-10)
(-88.3219999998 0 -1.93375989586e-10)
(-88.3219999999 0 4.85696918304e-11)
(-88.3220000012 0 -6.71275888819e-11)
(-88.3219999991 0 2.5803010554e-12)
(-88.3219999985 0 -5.44122994933e-11)
(-88.3220000013 0 3.76077600281e-11)
(-88.3220000018 0 7.58381294565e-11)
(-88.3219999982 0 -5.16017213423e-11)
(-88.3219999982 0 2.96383077081e-10)
(-88.322000002 0 -9.20238248269e-12)
(-88.3220000014 0 2.4535785285e-11)
(-88.321999999 0 -4.10668119426e-11)
(-88.3219999998 0 -9.59543677828e-12)
(-88.3220000003 0 -4.33377579934e-11)
(-88.3220000001 0 1.32344679174e-10)
(-88.3219999998 0 3.94459963956e-10)
(-88.3220000004 0 2.8668112928e-10)
(-88.3220000012 0 2.96254747309e-10)
(-88.3219999983 0 2.18578925364e-10)
(-88.321999999 0 4.29280045169e-10)
(-88.3220000013 0 1.93017656252e-10)
(-88.3219999998 0 -3.05257738439e-10)
(-88.3220000003 0 1.01618943188e-10)
(-88.3219999994 0 -1.41664401604e-10)
(-88.3219999992 0 2.46001955336e-10)
(-88.3220000013 0 4.79332755132e-10)
(-88.3220000006 0 -4.78202941497e-10)
(-88.322 0 -1.04378597971e-10)
(-88.3219999998 0 3.90692860628e-10)
(-88.3219999997 0 9.11649920912e-11)
(-88.3219999998 0 -3.87636244751e-10)
(-88.3219999996 0 -8.45936215371e-10)
(-88.3219999998 0 7.79990686561e-10)
(-88.3220000001 0 7.93032255258e-10)
(-88.322 0 5.94545509598e-10)
(-88.3220000004 0 -2.75619124779e-10)
(-88.3220000001 0 -8.05205224251e-11)
(-88.322 0 1.46997120314e-10)
(-88.3220000003 0 -1.95609650964e-11)
(-88.322 0 -3.84298215663e-11)
(-88.3219999997 0 -7.69444564142e-12)
(-88.322 0 1.16441068195e-11)
(-88.322 0 2.18304455233e-11)
(-88.322 0 1.86958037195e-11)
(-88.322 0 -2.66707094846e-12)
(-88.322 0 4.40512251499e-11)
(-88.3220000001 0 -1.77937627104e-10)
(-88.3219999998 0 -1.92975038838e-10)
(-88.3219999999 0 7.70054346794e-12)
(-88.3220000001 0 -1.71572115739e-11)
(-88.322 0 2.33030265445e-11)
(-88.3220000001 0 9.88804800099e-11)
(-88.3219999997 0 1.07346042651e-10)
(-88.3219999996 0 -1.14959187671e-11)
(-88.3220000011 0 7.39764413309e-12)
(-88.3220000011 0 1.8614389902e-11)
(-88.3219999984 0 8.32031957362e-12)
(-88.3219999986 0 4.8177971896e-11)
(-88.3220000004 0 -1.17670946405e-10)
(-88.3220000001 0 8.51839077332e-11)
(-88.3220000001 0 3.56592868602e-12)
(-88.3219999999 0 2.02590714228e-10)
(-88.3220000004 0 2.45898237615e-10)
(-88.3220000009 0 2.9580049673e-10)
(-88.3219999996 0 -1.06946495894e-11)
(-88.3219999997 0 1.57977634185e-10)
(-88.3220000003 0 3.21905930404e-10)
(-88.322 0 -2.43643059911e-11)
(-88.322 0 -4.54294299674e-10)
(-88.3219999999 0 -6.61294136923e-10)
(-88.3220000001 0 8.75832133851e-11)
(-88.3219999998 0 7.09115832212e-10)
(-88.3219999999 0 -9.06590361405e-10)
(-88.3220000002 0 -2.727542593e-10)
(-88.322 0 2.03198661369e-10)
(-88.322 0 3.29146669994e-10)
(-88.322 0 -1.09627599983e-10)
(-88.322 0 2.10158196168e-10)
(-88.322 0 5.6906937401e-11)
(-88.322 0 2.48942263393e-10)
(-88.322 0 -3.80849743979e-11)
(-88.3220000001 0 4.7259839268e-10)
(-88.3219999998 0 4.97184718272e-10)
(-88.3219999997 0 -3.43634272219e-10)
(-88.3220000003 0 -8.35256341802e-11)
(-88.322 0 2.25344146082e-10)
(-88.3220000005 0 -2.16757635985e-11)
(-88.3219999994 0 3.10463411302e-10)
(-88.3219999988 0 -3.30918527598e-10)
(-88.3220000014 0 -4.46089536947e-11)
(-88.3220000014 0 -2.0641999826e-10)
(-88.3219999993 0 8.44948986902e-11)
(-88.322 0 1.23833301583e-10)
(-88.3219999998 0 -3.02454318659e-10)
(-88.322 0 6.55162364973e-10)
(-88.3219999993 0 5.20209202537e-10)
(-88.3219999989 0 3.38439259942e-10)
(-88.3220000002 0 1.44771176327e-10)
(-88.3220000003 0 2.11315228791e-11)
(-88.3220000002 0 -7.24143715964e-11)
(-88.3219999992 0 -1.63737985034e-10)
(-88.322 0 3.12354518794e-10)
(-88.3220000003 0 5.21813871862e-10)
(-88.322 0 -5.47436072379e-11)
(-88.3219999999 0 4.09908574419e-10)
(-88.322 0 3.3370500849e-10)
(-88.322 0 -3.50963136858e-10)
(-88.322 0 -8.01325446493e-13)
(-88.3219999999 0 7.9777892405e-11)
(-88.3220000002 0 -2.36698973065e-11)
(-88.3220000002 0 1.21264684022e-10)
(-88.3219999999 0 1.38827543284e-10)
(-88.3219999999 0 -3.75839450445e-10)
(-88.3219999999 0 4.50259928813e-10)
(-88.3219999998 0 3.69008073038e-10)
(-88.3219999998 0 4.20312667491e-10)
(-88.3220000002 0 1.08387393058e-10)
(-88.3220000002 0 -5.14691561934e-10)
(-88.322 0 -2.17169973922e-10)
(-88.3219999999 0 7.73142111692e-10)
(-88.3219999999 0 9.52471934082e-10)
(-88.3220000003 0 -5.31587628265e-10)
(-88.3219999999 0 -5.43515081854e-10)
(-88.3219999998 0 -3.67066048388e-10)
(-88.3219999998 0 -8.93491433842e-12)
(-88.3219999993 0 1.05942958503e-10)
(-88.3219999996 0 -3.32788271573e-10)
(-88.322000001 0 4.25921186364e-10)
(-88.3220000001 0 5.27590746451e-10)
(-88.3219999993 0 -4.97102883757e-11)
(-88.3220000017 0 -3.33296585847e-10)
(-88.3220000006 0 7.79061014875e-11)
(-88.3219999996 0 1.05209892581e-10)
(-88.3220000002 0 9.33079906773e-11)
(-88.3219999991 0 -7.86802035566e-11)
(-88.3220000002 0 -6.37047929943e-12)
(-88.3220000001 0 -4.35479321625e-11)
(-88.3219999999 0 8.29076950913e-12)
(-88.3220000002 0 3.17264178759e-11)
(-88.3219999997 0 2.99227707461e-11)
(-88.322 0 -1.2364705342e-11)
(-88.322 0 7.69488967573e-12)
(-88.322 0 6.49943499238e-12)
(-88.322 0 5.64102615504e-12)
(-88.322 0 1.06560437279e-11)
(-88.3220000001 0 -4.64747838822e-11)
(-88.3219999999 0 2.18675702166e-10)
(-88.3220000001 0 -1.46737395341e-10)
(-88.3220000001 0 -6.64244005691e-11)
(-88.3219999997 0 -9.03217535324e-12)
(-88.3220000002 0 2.14949508334e-11)
(-88.322 0 2.27543210421e-10)
(-88.3219999999 0 -3.95290087554e-10)
(-88.3220000011 0 -3.9159777799e-10)
(-88.3220000002 0 2.86682962721e-10)
(-88.3219999994 0 2.66607124459e-10)
(-88.3220000006 0 3.11768538602e-11)
(-88.3219999986 0 3.36331733572e-10)
(-88.3219999982 0 -7.12669927229e-11)
(-88.3220000002 0 3.61441777071e-10)
(-88.3220000005 0 -2.7065697884e-10)
(-88.3220000007 0 -7.51732271763e-11)
(-88.3220000008 0 -2.15958937521e-10)
(-88.3220000003 0 3.9462718136e-10)
(-88.3219999993 0 2.13206435143e-11)
(-88.3219999987 0 -1.80555547247e-10)
(-88.3220000011 0 3.23772295239e-11)
(-88.3220000002 0 1.82600147679e-11)
(-88.3219999989 0 3.39118157631e-11)
(-88.3220000016 0 -6.22920105693e-11)
(-88.3220000007 0 4.6609751493e-11)
(-88.3219999992 0 -1.21759110626e-10)
(-88.3220000001 0 -1.55548987924e-10)
(-88.3219999999 0 3.87664739541e-10)
(-88.3219999998 0 -3.73517019091e-10)
(-88.3220000009 0 -3.68756335789e-10)
(-88.3219999993 0 -6.1965242438e-11)
(-88.3219999986 0 -1.14986523115e-10)
(-88.322 0 -1.3820709741e-11)
(-88.3220000007 0 -1.60808552664e-10)
(-88.3220000016 0 -8.92782983137e-11)
(-88.3220000001 0 1.72275924702e-11)
(-88.3219999985 0 -2.85446180101e-12)
(-88.3219999988 0 2.10100737432e-12)
(-88.322000001 0 -1.55900103137e-11)
(-88.3220000016 0 -2.0198488366e-12)
(-88.322 0 4.32901229638e-11)
(-88.321999999 0 -6.63929415993e-11)
(-88.3219999992 0 3.86440792703e-11)
(-88.3220000006 0 -2.45324380717e-10)
(-88.3219999997 0 -2.84417037767e-10)
(-88.3219999992 0 -4.80204158112e-10)
(-88.3220000006 0 2.06895708992e-10)
(-88.3220000015 0 -3.7887574199e-10)
(-88.3220000001 0 -3.38900809282e-10)
(-88.3219999991 0 6.98557528256e-10)
(-88.3219999999 0 1.79366924707e-10)
(-88.3220000003 0 -1.25629723158e-10)
(-88.3220000003 0 -3.40532931482e-10)
(-88.3219999998 0 -1.40819919391e-10)
(-88.3219999999 0 5.46954799222e-10)
(-88.322 0 -1.04422203947e-10)
(-88.322 0 -1.04866288126e-10)
(-88.322 0 2.99903515634e-11)
(-88.322 0 5.99309842693e-11)
(-88.322 0 -1.25386198145e-10)
(-88.322 0 4.05162498612e-11)
(-88.322 0 2.79970438214e-11)
(-88.3220000001 0 4.79926121782e-12)
(-88.3219999997 0 -4.67745768588e-12)
(-88.322 0 -1.66686775755e-11)
(-88.3220000003 0 2.1754945859e-11)
(-88.322 0 -2.05675743126e-11)
(-88.3219999999 0 7.77770309986e-11)
(-88.3220000001 0 -3.20310482765e-11)
(-88.3220000002 0 6.85637652058e-11)
(-88.3219999999 0 -7.47581315973e-11)
(-88.322 0 4.41628846762e-11)
(-88.3220000001 0 3.19799065427e-10)
(-88.3219999999 0 6.08875944133e-11)
(-88.3219999999 0 6.92842973915e-11)
(-88.3220000001 0 4.45071411633e-10)
(-88.3219999999 0 -4.44413585767e-10)
(-88.3219999998 0 -3.60709779033e-10)
(-88.3219999998 0 8.18632832085e-11)
(-88.3220000001 0 2.02207020597e-10)
(-88.3220000003 0 -9.1772994889e-11)
(-88.322 0 6.97280490607e-11)
(-88.3220000003 0 1.57360302197e-10)
(-88.3219999999 0 -2.98650529385e-10)
(-88.3219999999 0 -5.36303806891e-10)
(-88.322 0 2.04590643153e-10)
(-88.3220000001 0 -4.24190696121e-10)
(-88.3219999999 0 -3.45861765386e-10)
(-88.3220000001 0 3.48700165735e-10)
(-88.3220000004 0 -4.5135144606e-12)
(-88.3219999988 0 -1.04921677148e-10)
(-88.3220000007 0 5.07443441626e-11)
(-88.3220000018 0 -1.23859000057e-10)
(-88.3219999993 0 -9.69338734045e-11)
(-88.3219999993 0 2.95753542572e-10)
(-88.3219999997 0 -4.52210439891e-10)
(-88.3219999999 0 -3.38079132781e-10)
(-88.3219999999 0 -4.0766793044e-10)
(-88.3219999999 0 -3.16331664369e-11)
(-88.3220000001 0 3.70737403559e-10)
(-88.322 0 2.86573790125e-11)
(-88.322 0 -3.48269222676e-10)
(-88.3219999999 0 -5.73862909453e-10)
(-88.3220000002 0 1.48456820294e-10)
(-88.322 0 2.08594185857e-10)
(-88.3219999998 0 1.6659093247e-10)
(-88.3220000002 0 -2.59537068872e-10)
(-88.3219999999 0 -2.50197733845e-10)
(-88.3220000001 0 3.35216513132e-11)
(-88.322 0 -4.14245053934e-10)
(-88.322 0 -3.69539655216e-10)
(-88.3220000002 0 -1.07092567373e-10)
(-88.3219999995 0 3.80094429387e-10)
(-88.3219999997 0 -5.6147274492e-11)
(-88.3220000013 0 -5.90154143187e-11)
(-88.3220000013 0 -9.33220170427e-11)
(-88.3219999991 0 -3.85827431618e-11)
(-88.3219999983 0 1.65930813038e-10)
(-88.322 0 -2.766614746e-11)
(-88.3220000012 0 4.5194662235e-11)
(-88.322 0 -2.37283374531e-11)
(-88.3219999994 0 -1.22695252378e-11)
(-88.3220000003 0 2.89653374592e-11)
(-88.322 0 1.77927059706e-14)
(-88.3219999997 0 -9.58984612381e-12)
(-88.3220000001 0 -3.04815415813e-11)
(-88.322 0 -2.12600200814e-11)
(-88.3220000001 0 3.47636923373e-11)
(-88.3219999999 0 -1.4270215843e-10)
(-88.3220000001 0 2.86990012774e-11)
(-88.322 0 7.04568801207e-11)
(-88.3219999997 0 -1.07646217841e-10)
(-88.3220000001 0 -9.33614047395e-11)
(-88.322 0 6.19162775638e-11)
(-88.3219999999 0 4.66797838802e-10)
(-88.3220000004 0 4.79377792011e-10)
(-88.3220000002 0 -2.92411138724e-10)
(-88.3219999999 0 -2.85482627988e-10)
(-88.3219999999 0 -1.50712110254e-10)
(-88.3219999997 0 -4.01898063199e-10)
(-88.3219999998 0 1.36185958249e-10)
(-88.3219999992 0 -3.66919344496e-10)
(-88.3219999994 0 3.33729584692e-10)
(-88.3220000011 0 -1.20480135714e-10)
(-88.3220000004 0 1.10538564337e-10)
(-88.3220000002 0 -2.22357060008e-10)
(-88.3220000001 0 -1.6469464533e-11)
(-88.322 0 -3.81971184193e-11)
(-88.322 0 -1.442422369e-11)
(-88.322 0 -5.96623910308e-11)
(-88.322 0 5.89502282192e-11)
(-88.322 0 2.85455470101e-11)
(-88.322 0 -7.2243217252e-11)
(-88.3220000001 0 1.16740601752e-10)
(-88.322 0 1.43286238185e-10)
(-88.322 0 -4.31037371494e-10)
(-88.322 0 5.02225877789e-10)
(-88.322 0 5.23311590175e-10)
(-88.322 0 9.53177008717e-11)
(-88.322 0 1.14605876845e-10)
(-88.322 0 -8.16767442923e-12)
(-88.322 0 5.91481021017e-11)
(-88.322 0 -1.03083904584e-11)
(-88.322 0 7.63161539842e-12)
(-88.322 0 1.93118264697e-12)
(-88.322 0 -1.86707292837e-11)
(-88.322 0 1.76343764496e-11)
(-88.322 0 2.37550874386e-12)
(-88.322 0 9.15945996603e-11)
(-88.322 0 -3.55040681234e-11)
(-88.322 0 -3.90357809503e-11)
(-88.322 0 4.14049111822e-11)
(-88.322 0 -2.33028076795e-11)
(-88.322 0 1.97395129948e-11)
(-88.322 0 -1.27072639507e-10)
(-88.322 0 3.78037392137e-11)
(-88.322 0 -4.24338997652e-11)
(-88.322 0 -7.88622896157e-11)
(-88.322 0 2.13948963729e-10)
(-88.3220000002 0 -7.24989339657e-11)
(-88.3219999999 0 1.18438953659e-10)
(-88.3219999998 0 -1.38583582799e-10)
(-88.3220000001 0 -6.79776709044e-10)
(-88.322 0 1.27675175997e-10)
(-88.322 0 2.62775944883e-10)
(-88.322 0 -5.50113624661e-12)
(-88.322 0 -5.94300107238e-11)
(-88.322 0 1.33278656647e-10)
(-88.322 0 -6.21062142507e-11)
(-88.322 0 -2.29779141087e-11)
(-88.322 0 -1.7470126757e-11)
(-88.322 0 -4.18364416763e-11)
(-88.322 0 9.41826056848e-11)
(-88.3219999999 0 -6.84965658498e-12)
(-88.3220000002 0 1.42014554413e-10)
(-88.3220000002 0 -3.62649230278e-11)
(-88.3219999997 0 -4.77975459964e-11)
(-88.3219999991 0 -1.1557529633e-10)
(-88.3219999991 0 7.22358939322e-11)
(-88.3220000016 0 1.02353310161e-10)
(-88.3220000017 0 -2.40779494043e-10)
(-88.3219999995 0 -9.61788496614e-11)
(-88.3220000001 0 -8.3033252355e-11)
(-88.3219999995 0 -7.88844004349e-11)
(-88.3219999998 0 3.06071362008e-11)
(-88.3219999994 0 6.16681706888e-11)
(-88.3219999993 0 -9.210597793e-10)
(-88.3220000005 0 -7.00728068166e-10)
(-88.322 0 -2.16507635453e-10)
(-88.3219999997 0 8.21275870345e-11)
(-88.322 0 1.1363187484e-10)
(-88.3219999999 0 -1.2146438824e-10)
(-88.322 0 -3.92494746488e-11)
(-88.3219999998 0 4.42247725577e-11)
(-88.3219999999 0 4.4334863144e-11)
(-88.3220000002 0 -8.79889191298e-11)
(-88.322 0 -1.00083915831e-10)
(-88.322 0 -3.23314394151e-11)
(-88.322 0 -4.31324956773e-11)
(-88.322 0 -8.41492710978e-12)
(-88.3219999999 0 -1.38455720867e-11)
(-88.3220000001 0 -5.27891424768e-12)
(-88.3220000001 0 -1.83257960183e-11)
(-88.3219999999 0 -2.44350611033e-11)
(-88.322 0 -3.00170948681e-11)
(-88.322 0 -2.31240457149e-11)
(-88.322 0 -9.77783542057e-12)
(-88.322 0 3.65909580651e-11)
(-88.322 0 -1.52441820261e-10)
(-88.3219999999 0 -5.91232536821e-11)
(-88.3219999999 0 3.86808705567e-10)
(-88.322 0 2.87357102966e-10)
(-88.3220000001 0 -4.17188767948e-10)
(-88.3220000001 0 -3.30650273855e-10)
(-88.322 0 -1.20061472429e-10)
(-88.3219999999 0 4.75389415068e-11)
(-88.3220000001 0 -1.29682102579e-10)
(-88.3220000002 0 9.08552798083e-11)
(-88.322 0 -1.3525349514e-10)
(-88.3220000001 0 -3.86205639228e-10)
(-88.3219999998 0 -2.81837605303e-10)
(-88.3219999992 0 1.48421106066e-10)
(-88.3220000012 0 -3.71431650118e-10)
(-88.3220000014 0 -4.19428576364e-10)
(-88.3219999993 0 -3.9160695517e-10)
(-88.3219999999 0 4.08726767933e-10)
(-88.3219999995 0 3.22258877458e-10)
(-88.3219999992 0 -3.49707701693e-10)
(-88.3220000002 0 -2.41644226346e-10)
(-88.322 0 4.50761093842e-10)
(-88.322 0 9.17157074539e-11)
(-88.322 0 -2.91244860736e-10)
(-88.322 0 -4.80137906858e-10)
(-88.322 0 2.43140377788e-10)
(-88.3220000001 0 -2.27763899236e-10)
(-88.3219999999 0 -4.40117523912e-11)
(-88.3219999998 0 -4.76759685654e-10)
(-88.322 0 4.19212873173e-10)
(-88.3220000001 0 -8.31119466387e-11)
(-88.322 0 5.05585267667e-11)
(-88.3220000004 0 1.83551924351e-10)
(-88.3219999998 0 -3.29209569397e-10)
(-88.3219999995 0 -7.83046992018e-10)
(-88.322000001 0 -9.0318938342e-10)
(-88.3220000006 0 -3.15565029492e-10)
(-88.3219999996 0 8.44174119371e-10)
(-88.3219999998 0 5.07199631034e-10)
(-88.3219999994 0 -6.92848462476e-11)
(-88.3219999995 0 -5.62303200391e-10)
(-88.3220000011 0 5.98396856498e-10)
(-88.3220000009 0 -1.94766125979e-11)
(-88.3219999996 0 -1.51794538869e-10)
(-88.3219999996 0 -1.04695783015e-11)
(-88.322 0 1.00812923296e-10)
(-88.3220000005 0 5.83413854822e-11)
(-88.3220000003 0 1.59597505875e-10)
(-88.3219999997 0 -1.85143540347e-10)
(-88.3219999999 0 1.27840939208e-10)
(-88.3220000003 0 -2.13744955793e-10)
(-88.3220000002 0 1.51431181144e-10)
(-88.3219999999 0 1.82230591916e-10)
(-88.322 0 -1.68098123326e-10)
(-88.3219999999 0 -3.65721732214e-10)
(-88.322 0 -1.44482446946e-10)
(-88.322 0 -4.07845032004e-10)
(-88.322 0 -4.14489709781e-10)
(-88.322 0 -1.84951371162e-10)
(-88.322 0 7.44761567323e-11)
(-88.322 0 3.14152378988e-11)
(-88.322 0 7.7654700817e-11)
(-88.3219999999 0 -2.77236484257e-10)
(-88.3220000003 0 -5.89733637334e-10)
(-88.3220000002 0 2.74580948132e-10)
(-88.3219999989 0 2.927938644e-10)
(-88.3219999993 0 6.6458566972e-10)
(-88.3220000017 0 -3.83781940482e-10)
(-88.3220000012 0 -3.26122641851e-10)
(-88.3219999994 0 2.58094901331e-10)
(-88.3219999993 0 2.39090199532e-10)
(-88.322 0 2.43748242785e-10)
(-88.322 0 9.99358235675e-11)
(-88.3220000001 0 2.30537147548e-10)
(-88.3220000009 0 9.50511923079e-11)
(-88.3220000002 0 9.54117285007e-12)
(-88.3219999989 0 7.62982527866e-11)
(-88.3220000002 0 -1.03849187411e-10)
(-88.3220000011 0 -3.62214620714e-10)
(-88.3220000003 0 4.51136614287e-10)
(-88.3219999982 0 6.40399902783e-10)
(-88.3219999983 0 3.89099110558e-10)
(-88.3220000015 0 6.4083474222e-10)
(-88.3220000011 0 -3.75056820923e-10)
(-88.3219999985 0 -1.27232830411e-11)
(-88.3219999993 0 9.17045595486e-12)
(-88.3220000015 0 -4.21631442235e-11)
(-88.3220000011 0 4.63789380559e-11)
(-88.3219999989 0 -6.21522759178e-11)
(-88.3219999995 0 2.64253021951e-11)
(-88.3220000005 0 -8.97837568976e-11)
(-88.3220000005 0 -2.2986361431e-10)
(-88.321999999 0 1.93569751894e-10)
(-88.3219999991 0 2.57113381041e-10)
(-88.322000001 0 3.38642596416e-10)
(-88.3219999996 0 -3.08240830364e-10)
(-88.3220000004 0 -3.22262765651e-10)
(-88.3220000009 0 5.1354013289e-10)
(-88.3220000002 0 4.82421631292e-11)
(-88.3220000007 0 9.45383426559e-11)
(-88.3219999983 0 3.24847793287e-10)
(-88.3219999979 0 4.85934163605e-10)
(-88.3220000019 0 5.32565395105e-10)
(-88.3220000015 0 -1.85475915035e-10)
(-88.3219999984 0 -2.67578181479e-10)
(-88.3219999983 0 -1.82821510496e-10)
(-88.3220000008 0 3.92701727638e-10)
(-88.3220000005 0 3.24350208855e-10)
(-88.3219999995 0 2.51737196038e-10)
(-88.322 0 -1.42246753174e-10)
(-88.3219999999 0 -1.83363041152e-10)
(-88.3220000003 0 9.77914274829e-11)
(-88.322 0 -2.21987213119e-11)
(-88.3219999999 0 -3.69585586279e-11)
(-88.3219999999 0 -7.57643337585e-11)
(-88.3219999994 0 7.66739589752e-11)
(-88.3220000006 0 6.4495457195e-11)
(-88.3220000011 0 2.54246927585e-11)
(-88.3219999999 0 -2.40201333897e-11)
(-88.322 0 -2.02340329031e-10)
(-88.3220000004 0 -3.30822135456e-11)
(-88.3219999997 0 -6.27722214885e-11)
(-88.3219999991 0 -7.33421840047e-11)
(-88.3219999995 0 5.10622793139e-11)
(-88.322 0 -6.82687369178e-11)
(-88.3220000006 0 -1.27532441126e-11)
(-88.3220000014 0 7.04393754395e-12)
(-88.321999999 0 -6.13553020828e-11)
(-88.3219999982 0 1.68583638474e-10)
(-88.3219999991 0 1.446257653e-11)
(-88.3220000013 0 -2.87437205945e-10)
(-88.322000002 0 -2.02867217846e-10)
(-88.3219999989 0 3.02581535571e-10)
(-88.3219999989 0 4.0166831153e-10)
(-88.322 0 1.2634981639e-10)
(-88.3220000001 0 -3.7197961339e-11)
(-88.3220000001 0 1.33986312497e-10)
(-88.3220000002 0 -6.61470061547e-11)
(-88.3220000004 0 1.44818520226e-10)
(-88.3220000001 0 3.85722360812e-10)
(-88.322 0 2.83160501125e-10)
(-88.3219999999 0 -1.55910559444e-10)
(-88.3220000002 0 4.40515329064e-10)
(-88.3219999996 0 2.93220659281e-10)
(-88.3219999993 0 5.36193078904e-10)
(-88.322 0 -4.5097054075e-10)
(-88.322000001 0 -3.14507637768e-10)
(-88.3220000005 0 4.71124853396e-10)
(-88.3219999995 0 2.28757220263e-10)
(-88.322 0 -4.46812283565e-10)
(-88.322 0 -8.52002031995e-11)
(-88.3220000001 0 2.80510452715e-10)
(-88.322 0 4.9303118108e-10)
(-88.322 0 -3.40432186223e-10)
(-88.3220000006 0 2.06669637096e-10)
(-88.3219999994 0 1.60951569726e-11)
(-88.3219999988 0 4.75491218049e-10)
(-88.3219999997 0 -4.36700408351e-10)
(-88.3220000013 0 2.19566166629e-11)
(-88.3220000014 0 9.97489188098e-11)
(-88.3219999987 0 -4.04396788218e-10)
(-88.3219999991 0 9.85780588659e-11)
(-88.3220000003 0 6.46562924435e-10)
(-88.3220000004 0 6.00648333823e-10)
(-88.3219999999 0 3.37878421934e-10)
(-88.3219999993 0 -3.91255735512e-10)
(-88.3220000011 0 -5.2383017727e-10)
(-88.3220000009 0 4.45169272222e-10)
(-88.3219999996 0 3.8674109511e-10)
(-88.3219999998 0 -2.95483266068e-10)
(-88.322 0 -4.37816543678e-10)
(-88.3219999999 0 1.06632075473e-10)
(-88.322 0 -1.48417603699e-10)
(-88.322 0 -2.20693506908e-11)
(-88.322 0 8.15501093583e-11)
(-88.322 0 -1.3373385241e-10)
(-88.322 0 1.68963274823e-10)
(-88.322 0 -6.37484709527e-11)
(-88.322 0 1.40779867572e-10)
(-88.322 0 -1.68140407267e-10)
(-88.322 0 -9.76795903993e-11)
(-88.3220000001 0 -1.50776347876e-10)
(-88.3220000003 0 7.44815734051e-12)
(-88.322 0 2.76025352875e-10)
(-88.3219999997 0 1.50687870723e-10)
(-88.3220000001 0 -1.02961009079e-10)
(-88.3219999998 0 -2.23755513838e-10)
(-88.322 0 8.77276801684e-11)
(-88.3220000001 0 1.17033151389e-10)
(-88.3219999998 0 -1.52816395898e-10)
(-88.322 0 2.97721389054e-10)
(-88.322 0 5.85329565992e-10)
(-88.3220000001 0 -2.60853674068e-10)
(-88.3219999998 0 -3.02795328916e-10)
(-88.3219999998 0 -6.82302901617e-10)
(-88.3220000004 0 3.18142599534e-10)
(-88.322 0 3.02086111372e-10)
(-88.3219999998 0 -2.70271660189e-10)
(-88.3220000001 0 -2.39474380763e-10)
(-88.322 0 -2.63157981407e-10)
(-88.322 0 -1.67174974493e-10)
(-88.322 0 -1.76072839678e-10)
(-88.322 0 -8.82803042476e-11)
(-88.322 0 7.71196040017e-11)
(-88.322 0 1.0367220817e-10)
(-88.3219999998 0 -1.31789797567e-10)
(-88.3220000002 0 2.62706989714e-10)
(-88.3220000002 0 -2.77671402734e-10)
(-88.3219999997 0 -5.16519440878e-10)
(-88.322 0 -4.28808530039e-10)
(-88.3219999998 0 -6.80916252855e-11)
(-88.3220000001 0 -1.11062817008e-10)
(-88.3220000004 0 -3.9854640859e-10)
(-88.3219999999 0 2.23226081542e-10)
(-88.322 0 2.89625563309e-10)
(-88.322 0 -3.34230923891e-10)
(-88.3220000002 0 2.6087699589e-11)
(-88.3220000001 0 -4.49129096036e-10)
(-88.3219999998 0 -4.03073600606e-10)
(-88.322 0 5.9084536224e-11)
(-88.3219999999 0 -6.19979145088e-10)
(-88.322 0 -3.6199393538e-10)
(-88.3219999999 0 -3.82381550086e-10)
(-88.3220000005 0 2.08012237447e-10)
(-88.3220000005 0 2.8842548555e-10)
(-88.3219999989 0 -4.4276360603e-10)
(-88.3219999992 0 -6.49054260079e-11)
(-88.3220000013 0 -3.96173149281e-10)
(-88.3220000003 0 2.51401331979e-10)
(-88.3219999997 0 -4.02664349079e-10)
(-88.3220000003 0 -7.5537063591e-10)
(-88.3219999998 0 -2.11342494948e-10)
(-88.3219999999 0 5.23911427361e-11)
(-88.322 0 2.32252844739e-10)
(-88.322 0 3.34969264403e-11)