/*--------------------------------*- C++ -*----------------------------------*\
  =========                 |
  \\      /  F ield         | OpenFOAM: The Open Source CFD Toolbox
   \\    /   O peration     | Website:  https://openfoam.org
    \\  /    A nd           | Version:  6
     \\/     M anipulation  |
\*---------------------------------------------------------------------------*/
FoamFile
{
    version     2.0;
    format      ascii;
    class       volScalarField;
    location    "1e-08";
    object      p;
}
// * * * * * * * * * * * * * * * * * * * * * * * * * * * * * * * * * * * * * //

dimensions      [1 -1 -2 0 0 0 0];

internalField   nonuniform List<scalar> 
12288
(
5000005.00834
5000005.14061
5000005.25846
5000005.37037
5000005.49352
5000005.64066
5000005.80823
5000005.97921
5000006.13437
5000006.26016
5000006.35079
5000006.4129
5000006.463
5000006.51477
5000006.57283
5000006.63472
5000006.69466
5000006.74609
5000006.78274
5000006.80122
5000006.80486
5000006.80052
5000006.79321
5000006.78552
5000006.77568
5000006.75482
5000006.71671
5000006.66455
5000006.60561
5000006.54403
5000006.48002
5000006.41047
5000006.32973
5000006.2312
5000006.11056
5000005.96941
5000005.81575
5000005.661
5000005.51478
5000005.38226
5000005.26305
5000005.14902
5000005.02128
5000004.84964
5000004.60428
5000004.26966
5000003.85448
5000003.39713
5000002.97924
5000002.70268
5000002.43748
5000002.2679
5000002.16909
5000002.13806
5000002.17841
5000002.28973
5000002.4822
5000002.77822
5000003.20537
5000003.71885
5000004.17053
5000004.48966
5000004.70478
5000004.86375
5000008.2787
5000008.35499
5000008.42795
5000008.51496
5000008.62565
5000008.76689
5000008.93933
5000009.1209
5000009.28183
5000009.40107
5000009.46849
5000009.49823
5000009.52005
5000009.55241
5000009.59898
5000009.65489
5000009.71121
5000009.7582
5000009.78512
5000009.78926
5000009.77828
5000009.75891
5000009.73981
5000009.72718
5000009.71485
5000009.68914
5000009.64249
5000009.57982
5000009.51129
5000009.44373
5000009.38021
5000009.31974
5000009.25567
5000009.17457
5000009.06051
5000008.90744
5000008.72729
5000008.54438
5000008.38306
5000008.26023
5000008.18293
5000008.14705
5000008.1376
5000008.10651
5000007.96417
5000007.66172
5000007.21781
5000006.67518
5000006.10229
5000005.61311
5000005.23434
5000004.98062
5000004.82301
5000004.78207
5000004.84104
5000005.00309
5000005.27329
5000005.67551
5000006.24356
5000006.89875
5000007.43159
5000007.777
5000008.00376
5000008.17213
5000011.28591
5000011.28942
5000011.2864
5000011.30821
5000011.37107
5000011.47925
5000011.62663
5000011.80021
5000011.97245
5000012.10618
5000012.17364
5000012.19014
5000012.19868
5000012.22176
5000012.26178
5000012.31382
5000012.36989
5000012.41949
5000012.4484
5000012.45188
5000012.43833
5000012.41484
5000012.3911
5000012.3745
5000012.3587
5000012.32959
5000012.27902
5000012.21154
5000012.13803
5000012.06684
5000012.00183
5000011.94149
5000011.87689
5000011.79079
5000011.66545
5000011.50042
5000011.31872
5000011.15404
5000011.03216
5000010.96306
5000010.93891
5000010.94978
5000010.97729
5000010.97389
5000010.83021
5000010.48873
5000009.96005
5000009.28383
5000008.54432
5000007.85661
5000007.35311
5000006.99766
5000006.8061
5000006.76392
5000006.84345
5000007.05803
5000007.4092
5000007.92954
5000008.67629
5000009.55218
5000010.26074
5000010.70825
5000011.0147
5000011.21755
5000013.4226
5000013.36761
5000013.28839
5000013.24651
5000013.26913
5000013.35027
5000013.48584
5000013.65611
5000013.8364
5000013.99057
5000014.08182
5000014.11168
5000014.12296
5000014.14582
5000014.18628
5000014.24227
5000014.30729
5000014.37002
5000014.41448
5000014.42961
5000014.42458
5000014.40944
5000014.3906
5000014.37814
5000014.36803
5000014.34668
5000014.30462
5000014.24461
5000014.17778
5000014.11427
5000014.05873
5000014.00848
5000013.95222
5000013.87056
5000013.74733
5000013.58873
5000013.42538
5000013.29462
5000013.22025
5000013.19771
5000013.22398
5000013.28568
5000013.34049
5000013.33513
5000013.15372
5000012.73011
5000012.06536
5000011.2164
5000010.29137
5000009.41049
5000008.73458
5000008.23979
5000007.9598
5000007.86687
5000007.93081
5000008.16448
5000008.57953
5000009.21377
5000010.1529
5000011.2692
5000012.17486
5000012.74735
5000013.14606
5000013.38195
5000014.01987
5000013.93999
5000013.83188
5000013.76828
5000013.78372
5000013.86522
5000014.00191
5000014.17062
5000014.34905
5000014.50738
5000014.61253
5000014.6572
5000014.6747
5000014.69888
5000014.74135
5000014.80227
5000014.87561
5000014.95011
5000015.00923
5000015.04021
5000015.04697
5000015.04411
5000015.04021
5000015.0409
5000015.04504
5000015.04105
5000015.01729
5000014.97347
5000014.9212
5000014.87225
5000014.83207
5000014.79701
5000014.75382
5000014.68219
5000014.5674
5000014.419
5000014.27213
5000014.16478
5000014.11196
5000014.11736
5000014.1862
5000014.2861
5000014.36194
5000014.35609
5000014.14708
5000013.6497
5000012.86633
5000011.86852
5000010.78393
5000009.74754
5000008.93953
5000008.34913
5000008.00554
5000007.86795
5000007.88848
5000008.06646
5000008.45461
5000009.11775
5000010.17027
5000011.45529
5000012.52682
5000013.21805
5000013.68937
5000013.98079
5000007.91511
5000007.802
5000007.64968
5000007.54473
5000007.53639
5000007.60621
5000007.73365
5000007.89934
5000008.07532
5000008.23123
5000008.33732
5000008.38426
5000008.39914
5000008.41584
5000008.44961
5000008.50383
5000008.57374
5000008.64723
5000008.70717
5000008.73906
5000008.74583
5000008.74383
5000008.74124
5000008.74094
5000008.74287
5000008.73745
5000008.71266
5000008.66727
5000008.61238
5000008.55996
5000008.51636
5000008.47834
5000008.4319
5000008.35701
5000008.24072
5000008.0944
5000007.95443
5000007.86077
5000007.82224
5000007.85334
5000007.96155
5000008.08917
5000008.17612
5000008.1601
5000007.91049
5000007.33489
5000006.43641
5000005.29901
5000004.07249
5000002.9147
5000002.02256
5000001.39101
5000001.06107
5000000.95695
5000001.03625
5000001.30824
5000001.8001
5000002.56994
5000003.74523
5000005.14518
5000006.31938
5000007.07842
5000007.56407
5000007.88335
4999964.80713
4999964.68099
4999964.49385
4999964.34493
4999964.30801
4999964.36124
4999964.47447
4999964.63211
4999964.79963
4999964.94335
4999965.03492
4999965.06803
4999965.0711
4999965.07525
4999965.09314
4999965.13009
4999965.18289
4999965.23961
4999965.28195
4999965.29557
4999965.28712
4999965.26991
4999965.25128
4999965.23766
4999965.22635
4999965.20724
4999965.16989
4999965.11408
4999965.05035
4999964.99102
4999964.94382
4999964.90625
4999964.86416
4999964.79769
4999964.69337
4999964.56182
4999964.43717
4999964.35729
4999964.33096
4999964.38218
4999964.50979
4999964.63063
4999964.69652
4999964.63199
4999964.28455
4999963.58512
4999962.54167
4999961.24853
4999959.87439
4999958.59622
4999957.63032
4999956.96793
4999956.64352
4999956.56232
4999956.69317
4999957.05586
4999957.65282
4999958.55487
4999959.90696
4999961.51736
4999962.88191
4999963.78796
4999964.35388
4999964.74385
4999781.37486
4999781.23988
4999781.029
4999780.85918
4999780.8151
4999780.8728
4999780.99803
4999781.16939
4999781.34532
4999781.48905
4999781.57259
4999781.59499
4999781.58912
4999781.58278
4999781.58696
4999781.60741
4999781.63978
4999781.67253
4999781.68801
4999781.67967
4999781.64956
4999781.60504
4999781.56308
4999781.53144
4999781.50455
4999781.47107
4999781.42213
4999781.35865
4999781.29047
4999781.22894
4999781.18149
4999781.14525
4999781.10481
4999781.03867
4999780.93169
4999780.79158
4999780.64857
4999780.53987
4999780.48656
4999780.50918
4999780.59752
4999780.67995
4999780.72364
4999780.62364
4999780.21404
4999779.44274
4999778.30532
4999776.89988
4999775.4089
4999774.02415
4999772.98152
4999772.27206
4999771.92727
4999771.84445
4999771.99116
4999772.39138
4999773.05822
4999774.0762
4999775.60407
4999777.45324
4999779.04434
4999780.12927
4999780.80169
4999781.26999
4999256.5622
4999256.45694
4999256.25292
4999256.07399
4999256.02386
4999256.07845
4999256.20443
4999256.38369
4999256.57047
4999256.72365
4999256.8163
4999256.84928
4999256.85439
4999256.85843
4999256.87362
4999256.90709
4999256.95067
4999256.98839
4999257.00443
4999256.99669
4999256.96602
4999256.91789
4999256.87243
4999256.83912
4999256.81052
4999256.77327
4999256.71803
4999256.64623
4999256.56829
4999256.49571
4999256.43561
4999256.38445
4999256.32477
4999256.23327
4999256.09469
4999255.91653
4999255.73317
4999255.59051
4999255.51696
4999255.51604
4999255.57712
4999255.65087
4999255.6969
4999255.58056
4999255.13874
4999254.3077
4999253.07333
4999251.5417
4999249.91084
4999248.38739
4999247.22892
4999246.43222
4999246.02943
4999245.91875
4999246.06043
4999246.47063
4999247.17362
4999248.26182
4999249.91448
4999251.95105
4999253.74331
4999255.00138
4999255.80547
4999256.38772
4998234.77339
4998234.75821
4998234.63501
4998234.53169
4998234.53719
4998234.63779
4998234.81071
4998235.02806
4998235.24937
4998235.43026
4998235.54183
4998235.59162
4998235.61554
4998235.64305
4998235.68713
4998235.75269
4998235.83182
4998235.90513
4998235.95316
4998235.96858
4998235.96027
4998235.93702
4998235.91143
4998235.89642
4998235.88442
4998235.85898
4998235.80804
4998235.7328
4998235.6456
4998235.55973
4998235.48362
4998235.41404
4998235.33207
4998235.21193
4998235.03563
4998234.8125
4998234.58446
4998234.40501
4998234.30594
4998234.27931
4998234.31378
4998234.37261
4998234.40431
4998234.2458
4998233.72201
4998232.76364
4998231.36587
4998229.64931
4998227.82763
4998226.11886
4998224.80092
4998223.87658
4998223.38023
4998223.21644
4998223.33671
4998223.74234
4998224.46694
4998225.60596
4998227.3567
4998229.53106
4998231.47622
4998232.86298
4998233.77602
4998234.49196
4996853.47831
4996853.56964
4996853.56786
4996853.62016
4996853.7709
4996854.03232
4996854.37274
4996854.74703
4996855.10974
4996855.41392
4996855.62669
4996855.75812
4996855.85259
4996855.94759
4996856.05734
4996856.18392
4996856.32089
4996856.44938
4996856.54623
4996856.60015
4996856.61885
4996856.62079
4996856.61728
4996856.61383
4996856.60736
4996856.57973
4996856.51462
4996856.41264
4996856.28793
4996856.15567
4996856.02605
4996855.89708
4996855.74891
4996855.55236
4996855.28611
4996854.96227
4996854.62881
4996854.34176
4996854.13426
4996854.00612
4996853.93967
4996853.91222
4996853.85107
4996853.55912
4996852.86665
4996851.70762
4996850.09338
4996848.15557
4996846.11691
4996844.20335
4996842.71163
4996841.65663
4996841.0736
4996840.86123
4996840.9627
4996841.37297
4996842.14367
4996843.37144
4996845.26108
4996847.60035
4996849.70705
4996851.22352
4996852.22833
4996853.06113
4995446.80056
4995447.01515
4995447.14045
4995447.35029
4995447.69556
4995448.17774
4995448.75996
4995449.38651
4995449.99967
4995450.54604
4995450.98924
4995451.33501
4995451.62696
4995451.90775
4995452.19469
4995452.48559
4995452.76865
4995453.02377
4995453.22521
4995453.3563
4995453.42381
4995453.44711
4995453.44392
4995453.41687
4995453.35884
4995453.25737
4995453.09657
4995452.87847
4995452.62053
4995452.34211
4995452.05724
4995451.76632
4995451.44955
4995451.07627
4995450.62473
4995450.10944
4995449.58201
4995449.10072
4995448.70117
4995448.38885
4995448.15561
4995447.97622
4995447.75269
4995447.28084
4995446.38809
4995445.01244
4995443.17916
4995441.02374
4995438.77206
4995436.65832
4995434.99566
4995433.82984
4995433.17689
4995432.92404
4995433.01649
4995433.43907
4995434.26969
4995435.61224
4995437.67652
4995440.21746
4995442.51766
4995444.19472
4995445.30833
4995446.23489
4994188.25312
4994188.57805
4994188.79911
4994189.1295
4994189.63795
4994190.31993
4994191.13111
4994192.01166
4994192.89883
4994193.73414
4994194.47859
4994195.13346
4994195.73585
4994196.32474
4994196.91521
4994197.49806
4994198.04999
4994198.54019
4994198.93538
4994199.21291
4994199.3723
4994199.42753
4994199.4083
4994199.32022
4994199.15319
4994198.90512
4994198.56683
4994198.14657
4994197.67
4994197.16468
4994196.64959
4994196.12776
4994195.58016
4994194.97663
4994194.29688
4994193.55752
4994192.81245
4994192.1205
4994191.52135
4994191.0323
4994190.64929
4994190.33042
4994189.9563
4994189.32047
4994188.25189
4994186.69143
4994184.66557
4994182.30656
4994179.84757
4994177.53673
4994175.69542
4994174.42478
4994173.69103
4994173.38506
4994173.46038
4994173.87077
4994174.73168
4994176.16329
4994178.37963
4994181.0907
4994183.55396
4994185.36682
4994186.57169
4994187.54328
4993116.75891
4993117.13164
4993117.38035
4993117.75757
4993118.34694
4993119.14206
4993120.09742
4993121.1556
4993122.25309
4993123.32823
4993124.33919
4993125.2843
4993126.19642
4993127.10851
4993128.02824
4993128.93582
4993129.7941
4993130.55797
4993131.18412
4993131.64597
4993131.93769
4993132.05481
4993132.03779
4993131.90953
4993131.65729
4993131.28699
4993130.79653
4993130.2034
4993129.54178
4993128.84596
4993128.13979
4993127.42878
4993126.69409
4993125.9061
4993125.0467
4993124.13562
4993123.22795
4993122.38397
4993121.6486
4993121.04584
4993120.57081
4993120.16463
4993119.68663
4993118.92671
4993117.72045
4993116.00976
4993113.81025
4993111.25233
4993108.59004
4993106.09171
4993104.06844
4993102.68531
4993101.85238
4993101.4833
4993101.52357
4993101.89482
4993102.75311
4993104.23837
4993106.56166
4993109.37238
4993111.91928
4993113.80072
4993115.0422
4993115.9829
4992441.85367
4992442.20759
4992442.39332
4992442.71292
4992443.26708
4992444.05299
4992445.02609
4992446.13051
4992447.29859
4992448.46463
4992449.58313
4992450.64738
4992451.68697
4992452.73476
4992453.79766
4992454.85131
4992455.85113
4992456.74707
4992457.49694
4992458.07895
4992458.49137
4992458.72746
4992458.8041
4992458.75659
4992458.58618
4992458.28063
4992457.83422
4992457.26794
4992456.61731
4992455.91757
4992455.1947
4992454.45574
4992453.68233
4992452.84554
4992451.92926
4992450.95629
4992449.98477
4992449.07903
4992448.29192
4992447.65367
4992447.15552
4992446.72401
4992446.20159
4992445.37175
4992444.07323
4992442.24068
4992439.87794
4992437.12728
4992434.27604
4992431.61442
4992429.42252
4992427.9144
4992426.96283
4992426.51256
4992426.49693
4992426.8203
4992427.65721
4992429.18894
4992431.60972
4992434.4885
4992437.08229
4992439.00005
4992440.2476
4992441.10793
4992293.68859
4992294.03675
4992294.15948
4992294.39909
4992294.88201
4992295.61286
4992296.548
4992297.62952
4992298.77894
4992299.92162
4992301.00704
4992302.02673
4992303.01339
4992304.00593
4992305.01671
4992306.02421
4992306.98568
4992307.85506
4992308.59699
4992309.1959
4992309.65804
4992309.9945
4992310.19568
4992310.27278
4992310.25336
4992310.11031
4992309.81629
4992309.39241
4992308.87123
4992308.28587
4992307.6628
4992307.00939
4992306.30686
4992305.52566
4992304.65047
4992303.70678
4992302.75571
4992301.86803
4992301.10634
4992300.50621
4992300.05479
4992299.66906
4992299.17976
4992298.36014
4992297.04298
4992295.15179
4992292.6855
4992289.8002
4992286.80982
4992284.02761
4992281.71045
4992280.07495
4992278.97626
4992278.37805
4992278.24257
4992278.47715
4992279.24962
4992280.80608
4992283.31287
4992286.26184
4992288.92119
4992290.89744
4992292.17399
4992292.99367
4992403.76445
4992404.10233
4992404.16261
4992404.31183
4992404.71025
4992405.36503
4992406.23326
4992407.2525
4992408.33251
4992409.39226
4992410.3736
4992411.26474
4992412.10512
4992412.94373
4992413.80051
4992414.66049
4992415.48984
4992416.25524
4992416.93414
4992417.51775
4992418.01484
4992418.45038
4992418.83062
4992419.11797
4992419.29862
4992419.37782
4992419.32437
4992419.12241
4992418.79977
4992418.39098
4992417.92214
4992417.40018
4992416.80591
4992416.10951
4992415.29724
4992414.39694
4992413.47319
4992412.60417
4992411.86151
4992411.28613
4992410.86458
4992410.50992
4992410.04536
4992409.23212
4992407.8923
4992405.93843
4992403.37659
4992400.38339
4992397.28897
4992394.40832
4992391.97919
4992390.24287
4992389.06587
4992388.43276
4992388.27893
4992388.49307
4992389.2502
4992390.86401
4992393.4504
4992396.43632
4992399.12533
4992401.123
4992402.39056
4992403.15866
4993067.32993
4993067.61173
4993067.58472
4993067.61084
4993067.88621
4993068.42957
4993069.19463
4993070.10929
4993071.06479
4993071.97144
4993072.75702
4993073.41212
4993073.99402
4993074.5659
4993075.15848
4993075.77052
4993076.386
4993076.99056
4993077.57944
4993078.15844
4993078.74173
4993079.34884
4993079.98975
4993080.62053
4993081.1866
4993081.65159
4993081.96869
4993082.12764
4993082.15217
4993082.04947
4993081.83709
4993081.53289
4993081.11253
4993080.54264
4993079.81233
4993078.95659
4993078.04845
4993077.17767
4993076.42816
4993075.84797
4993075.42296
4993075.06095
4993074.57544
4993073.71566
4993072.29417
4993070.22117
4993067.51289
4993064.36006
4993061.11176
4993058.10061
4993055.56796
4993053.75952
4993052.55239
4993051.93552
4993051.78799
4993052.01135
4993052.80544
4993054.49795
4993057.17431
4993060.20146
4993062.91804
4993064.92609
4993066.1656
4993066.85262
4994508.42966
4994508.67632
4994508.60863
4994508.57676
4994508.7733
4994509.20897
4994509.86122
4994510.66267
4994511.4791
4994512.20616
4994512.73654
4994513.09147
4994513.35946
4994513.618
4994513.90992
4994514.25086
4994514.64366
4994515.09145
4994515.60166
4994516.18668
4994516.86051
4994517.63212
4994518.50339
4994519.44578
4994520.39402
4994521.27767
4994522.03509
4994522.63128
4994523.05207
4994523.30355
4994523.41391
4994523.39521
4994523.21198
4994522.81855
4994522.20214
4994521.40716
4994520.51951
4994519.64027
4994518.86328
4994518.2436
4994517.77043
4994517.35127
4994516.79376
4994515.83863
4994514.29032
4994512.05842
4994509.17642
4994505.86144
4994502.44325
4994499.28646
4994496.64169
4994494.76268
4994493.51109
4994492.86275
4994492.6863
4994492.9048
4994493.72722
4994495.49785
4994498.26537
4994501.34627
4994504.11002
4994506.15133
4994507.39276
4994508.04093
4996775.74114
4996776.00612
4996775.98377
4996775.95064
4996776.11672
4996776.48749
4996777.00974
4996777.72188
4996778.42768
4996778.97539
4996779.22439
4996779.27675
4996779.25079
4996779.22978
4996779.26887
4996779.39919
4996779.63036
4996779.97275
4996780.43185
4996781.01299
4996781.72581
4996782.57544
4996783.55694
4996784.65442
4996785.82259
4996786.99471
4996788.09947
4996789.07517
4996789.88253
4996790.50539
4996790.94451
4996791.19236
4996791.26569
4996791.12262
4996790.68545
4996789.99734
4996789.16495
4996788.30388
4996787.51818
4996786.87225
4996786.36263
4996785.90213
4996785.29382
4996784.26639
4996782.61205
4996780.24663
4996777.24039
4996773.85269
4996770.26948
4996766.95658
4996764.16683
4996762.17164
4996760.80912
4996760.04078
4996759.77256
4996759.92865
4996760.71473
4996762.53414
4996765.37982
4996768.52333
4996771.35206
4996773.45147
4996774.72865
4996775.38611
4999883.37342
4999883.59737
4999883.60967
4999883.53904
4999883.66257
4999884.05413
4999884.68266
4999885.35485
4999885.95667
4999886.28212
4999886.26633
4999886.07956
4999885.82138
4999885.58702
4999885.46445
4999885.46625
4999885.59618
4999885.88179
4999886.30782
4999886.86842
4999887.57129
4999888.42782
4999889.43941
4999890.59733
4999891.8712
4999893.21052
4999894.55196
4999895.82856
4999896.9846
4999897.9748
4999898.7634
4999899.32934
4999899.64699
4999899.73802
4999899.55609
4999899.04714
4999898.31905
4999897.51925
4999896.76671
4999896.13683
4999895.6392
4999895.18888
4999894.57914
4999893.52372
4999891.8093
4999889.35108
4999886.16206
4999882.44311
4999878.68143
4999875.24805
4999872.30846
4999870.17266
4999868.67954
4999867.78253
4999867.41175
4999867.48958
4999868.22317
4999870.06432
4999872.94322
4999876.11536
4999878.99339
4999881.14222
4999882.43555
4999883.07561
5003798.5196
5003798.57799
5003798.54621
5003798.31834
5003798.2108
5003798.77603
5003799.80855
5003800.43191
5003800.87712
5003801.00021
5003800.81831
5003800.49334
5003800.12771
5003799.81709
5003799.64395
5003799.62321
5003799.75245
5003800.04464
5003800.46949
5003801.01529
5003801.69674
5003802.53891
5003803.55724
5003804.74676
5003806.07815
5003807.50927
5003808.99251
5003810.47648
5003811.91176
5003813.2434
5003814.39667
5003815.3172
5003815.94958
5003816.26095
5003816.29962
5003816.03323
5003815.46238
5003814.76367
5003814.08495
5003813.51611
5003813.07962
5003812.68117
5003812.09459
5003811.02377
5003809.29362
5003806.85566
5003803.32255
5003798.82275
5003794.92312
5003791.49553
5003788.42743
5003786.10882
5003784.43532
5003783.36911
5003782.85085
5003782.83064
5003783.49919
5003785.31441
5003788.17992
5003791.3578
5003794.28367
5003796.47832
5003797.76349
5003798.33979
5008160.31861
5008160.19243
5008160.05127
5008159.74722
5008159.599
5008159.81184
5008160.28878
5008160.77541
5008161.17151
5008161.20112
5008160.97143
5008160.64603
5008160.33569
5008160.11707
5008160.04518
5008160.1185
5008160.35096
5008160.7367
5008161.21287
5008161.77055
5008162.43999
5008163.26121
5008164.26149
5008165.44096
5008166.77306
5008168.22329
5008169.75722
5008171.34286
5008172.94392
5008174.52119
5008176.0074
5008177.30579
5008178.30207
5008178.91545
5008179.16719
5008179.1175
5008178.76461
5008178.20987
5008177.64584
5008177.18914
5008176.84754
5008176.5114
5008175.93678
5008174.82094
5008172.96193
5008170.27827
5008166.70485
5008162.58592
5008158.60163
5008154.8932
5008151.61258
5008149.05048
5008147.11684
5008145.81099
5008145.0694
5008144.90703
5008145.46693
5008147.19679
5008150.04377
5008153.25293
5008156.22364
5008158.43278
5008159.70536
5008160.24126
5012298.00435
5012297.77421
5012297.448
5012297.00889
5012296.68687
5012296.6336
5012296.70513
5012296.95421
5012297.12923
5012296.90225
5012296.62217
5012296.3921
5012296.22778
5012296.1963
5012296.3359
5012296.64471
5012297.11591
5012297.69525
5012298.31643
5012298.96933
5012299.68511
5012300.51133
5012301.48906
5012302.63767
5012303.94965
5012305.39917
5012306.95103
5012308.58199
5012310.2807
5012312.03635
5012313.79519
5012315.44821
5012316.8487
5012317.86577
5012318.43544
5012318.63659
5012318.54063
5012318.20534
5012317.80047
5012317.47555
5012317.24044
5012316.96849
5012316.37912
5012315.15917
5012313.14599
5012310.30298
5012306.6946
5012302.68194
5012298.45447
5012294.46774
5012290.91814
5012288.11195
5012285.93704
5012284.42004
5012283.4742
5012283.16936
5012283.59964
5012285.23153
5012288.07474
5012291.29563
5012294.20386
5012296.29133
5012297.48122
5012297.97491
5015411.50842
5015411.10702
5015410.5073
5015409.7848
5015409.07934
5015408.68153
5015408.51766
5015408.4919
5015408.3799
5015407.92394
5015407.51446
5015407.29681
5015407.22843
5015407.37264
5015407.80161
5015408.48475
5015409.33977
5015410.28105
5015411.23908
5015412.18484
5015413.12799
5015414.10861
5015415.18143
5015416.39389
5015417.76179
5015419.26262
5015420.86318
5015422.56483
5015424.38621
5015426.32001
5015428.3067
5015430.25574
5015432.0374
5015433.5038
5015434.52839
5015435.08998
5015435.28647
5015435.22716
5015435.03301
5015434.84564
5015434.70599
5015434.5004
5015433.92718
5015432.63705
5015430.46746
5015427.40801
5015423.54712
5015419.16621
5015414.56673
5015410.25974
5015406.46116
5015403.51101
5015401.22063
5015399.56147
5015398.44896
5015398.04078
5015398.37544
5015399.94112
5015402.74899
5015405.85499
5015408.54151
5015410.38015
5015411.35185
5015411.64583
5017140.05267
5017139.29182
5017138.29363
5017137.13517
5017135.96657
5017135.08567
5017134.50592
5017134.08177
5017133.67611
5017133.08274
5017132.54861
5017132.262
5017132.23055
5017132.51994
5017133.22465
5017134.27354
5017135.55595
5017136.96674
5017138.42278
5017139.86304
5017141.26076
5017142.63021
5017144.017
5017145.46815
5017147.00231
5017148.60993
5017150.29693
5017152.11251
5017154.09332
5017156.20605
5017158.38233
5017160.55676
5017162.63607
5017164.47597
5017165.92244
5017166.89139
5017167.42059
5017167.62765
5017167.66081
5017167.62314
5017167.55736
5017167.39546
5017166.8363
5017165.50287
5017163.19005
5017159.83382
5017155.6061
5017150.86134
5017145.97105
5017141.38914
5017137.35172
5017134.20618
5017131.76871
5017129.98929
5017128.70459
5017128.1795
5017128.44349
5017129.93103
5017132.63764
5017135.61433
5017138.13984
5017139.81134
5017140.52515
5017140.50675
5017783.17326
5017782.07289
5017780.70449
5017779.16003
5017777.61085
5017776.32468
5017775.35408
5017774.5683
5017773.88585
5017773.18169
5017772.51668
5017772.12603
5017772.09083
5017772.44112
5017773.26035
5017774.47803
5017775.99752
5017777.71553
5017779.54301
5017781.40059
5017783.23706
5017785.03848
5017786.81405
5017788.57124
5017790.3108
5017792.04881
5017793.84234
5017795.76403
5017797.8496
5017800.06457
5017802.36419
5017804.69122
5017806.96082
5017809.03241
5017810.75182
5017812.01735
5017812.83496
5017813.3058
5017813.56339
5017813.68348
5017813.70295
5017813.60505
5017813.09689
5017811.74579
5017809.30463
5017805.68073
5017801.1674
5017796.18283
5017791.09337
5017786.31575
5017782.08442
5017778.69779
5017776.04061
5017774.07569
5017772.65671
5017772.06595
5017772.28396
5017773.71167
5017776.35268
5017779.32282
5017781.88185
5017783.54741
5017784.12779
5017783.89214
5017872.07712
5017870.86786
5017869.3416
5017867.62006
5017865.90655
5017864.44847
5017863.31113
5017862.34186
5017861.43685
5017860.57104
5017859.81161
5017859.35271
5017859.27947
5017859.59611
5017860.37896
5017861.56946
5017863.08284
5017864.82152
5017866.70034
5017868.64386
5017870.60178
5017872.55163
5017874.47923
5017876.36381
5017878.19415
5017879.99658
5017881.84134
5017883.79661
5017885.89388
5017888.11878
5017890.45188
5017892.8383
5017895.18649
5017897.35682
5017899.19961
5017900.61252
5017901.59477
5017902.23953
5017902.66434
5017902.93451
5017903.05116
5017903.05211
5017902.67173
5017901.3936
5017898.95836
5017895.31596
5017890.7727
5017885.72035
5017880.55623
5017875.70095
5017871.37367
5017867.81704
5017864.96792
5017862.89995
5017861.43889
5017860.82321
5017861.04054
5017862.45898
5017865.08182
5017868.12934
5017870.81904
5017872.54875
5017873.1105
5017872.84711
5017848.51949
5017847.24763
5017845.62569
5017843.80125
5017841.9915
5017840.43724
5017839.21566
5017838.16492
5017837.15829
5017836.22117
5017835.44326
5017834.9511
5017834.8358
5017835.10418
5017835.80742
5017836.90934
5017838.34103
5017840.01553
5017841.85257
5017843.7806
5017845.75591
5017847.75698
5017849.75741
5017851.7186
5017853.61933
5017855.48394
5017857.37602
5017859.35131
5017861.44073
5017863.64893
5017865.98125
5017868.38626
5017870.76934
5017872.99007
5017874.90197
5017876.40619
5017877.50212
5017878.27634
5017878.83487
5017879.23408
5017879.44586
5017879.51854
5017879.24219
5017878.06288
5017875.67004
5017872.03679
5017867.47555
5017862.37358
5017857.17867
5017852.31307
5017847.9788
5017844.37108
5017841.45475
5017839.33095
5017837.87319
5017837.27782
5017837.50407
5017838.92004
5017841.53191
5017844.61105
5017847.33599
5017849.0542
5017849.58406
5017849.31019
5017692.96742
5017691.60434
5017689.86415
5017687.9099
5017685.95989
5017684.23981
5017682.84757
5017681.63523
5017680.45361
5017679.34981
5017678.47355
5017677.89323
5017677.6717
5017677.84197
5017678.40882
5017679.37475
5017680.68936
5017682.27858
5017684.06803
5017685.9944
5017688.02207
5017690.14049
5017692.30508
5017694.44837
5017696.52729
5017698.55079
5017700.5664
5017702.61384
5017704.72936
5017706.94107
5017709.28151
5017711.7109
5017714.14308
5017716.44281
5017718.4608
5017720.0888
5017721.3274
5017722.25912
5017722.9823
5017723.54064
5017723.88947
5017724.05521
5017723.87615
5017722.7958
5017720.43269
5017716.78709
5017712.17599
5017706.99329
5017701.75323
5017696.87566
5017692.52328
5017688.86
5017685.89973
5017683.76425
5017682.35982
5017681.82839
5017682.09394
5017683.52084
5017686.11363
5017689.21691
5017691.97357
5017693.65781
5017694.12137
5017693.8091
5017340.46929
5017338.93488
5017337.0035
5017334.8442
5017332.65751
5017330.65595
5017328.96091
5017327.47119
5017326.03483
5017324.68824
5017323.60402
5017322.88671
5017322.52069
5017322.56058
5017322.96695
5017323.78795
5017325.00259
5017326.55378
5017328.36652
5017330.38078
5017332.57529
5017334.94437
5017337.41081
5017339.86696
5017342.24723
5017344.55074
5017346.80846
5017349.01426
5017351.22077
5017353.49107
5017355.88661
5017358.38607
5017360.91827
5017363.35682
5017365.54194
5017367.33435
5017368.74343
5017369.85613
5017370.76547
5017371.50364
5017371.99789
5017372.22912
5017372.07386
5017371.00894
5017368.60197
5017364.87749
5017360.15874
5017354.85723
5017349.51426
5017344.546
5017340.15142
5017336.47783
5017333.53837
5017331.40027
5017330.01628
5017329.53731
5017329.85241
5017331.31045
5017333.90323
5017337.0202
5017339.78364
5017341.43235
5017341.83278
5017341.43852
5016762.4054
5016760.68898
5016758.54821
5016756.15186
5016753.68707
5016751.36529
5016749.32337
5016747.4681
5016745.58831
5016743.94749
5016742.60837
5016741.64113
5016741.10588
5016740.99919
5016741.25115
5016741.92835
5016743.06317
5016744.60963
5016746.48882
5016748.67024
5016751.22878
5016753.93982
5016756.74416
5016759.54866
5016762.29131
5016764.96627
5016767.57313
5016770.01179
5016772.37268
5016774.75764
5016777.2599
5016779.88218
5016782.56072
5016785.17165
5016787.55192
5016789.53111
5016791.11621
5016792.39293
5016793.45758
5016794.33367
5016794.91563
5016795.15437
5016794.96096
5016793.85363
5016791.3865
5016787.57941
5016782.74519
5016777.30804
5016771.79223
5016766.62685
5016762.14288
5016758.46095
5016755.55631
5016753.40574
5016752.00422
5016751.55268
5016751.9166
5016753.42247
5016756.04375
5016759.19925
5016761.99198
5016763.63495
5016763.99518
5016763.51459
5015950.12358
5015948.24295
5015945.90959
5015943.28722
5015940.56884
5015937.97956
5015935.64249
5015933.38045
5015930.89493
5015928.95528
5015927.38084
5015926.15387
5015925.3174
5015925.08541
5015925.17342
5015925.67092
5015926.68642
5015928.1883
5015930.11411
5015932.52472
5015935.62707
5015938.68174
5015941.77353
5015944.91099
5015948.05982
5015951.15768
5015954.12841
5015956.82363
5015959.38349
5015961.91042
5015964.54129
5015967.30055
5015970.10574
5015972.81973
5015975.31311
5015977.43343
5015979.1796
5015980.58635
5015981.75232
5015982.69714
5015983.30189
5015983.51732
5015983.29912
5015982.19877
5015979.75319
5015975.93449
5015970.99973
5015965.41585
5015959.71652
5015954.37686
5015949.79083
5015946.07703
5015943.22316
5015941.09719
5015939.69155
5015939.26585
5015939.68799
5015941.25855
5015943.92862
5015947.1495