/*--------------------------------*- C++ -*----------------------------------*\
  =========                 |
  \\      /  F ield         | OpenFOAM: The Open Source CFD Toolbox
   \\    /   O peration     | Website:  https://openfoam.org
    \\  /    A nd           | Version:  6
     \\/     M anipulation  |
\*---------------------------------------------------------------------------*/
FoamFile
{
    version     2.0;
    format      ascii;
    class       volScalarField;
    location    "1e-08";
    object      rho;
}
// * * * * * * * * * * * * * * * * * * * * * * * * * * * * * * * * * * * * * //

dimensions      [1 -3 0 0 0 0 0];

internalField   nonuniform List<scalar> 
12288
(
27.9362942573
27.9362947522
27.9362952007
27.9362956326
27.9362961107
27.9362966811
27.9362973281
27.936297985
27.9362985789
27.93629906
27.9362994089
27.9362996526
27.9362998548
27.9363000666
27.9363003039
27.9363005562
27.9363008008
27.9363010129
27.9363011702
27.9363012582
27.9363012831
27.9363012766
27.9363012598
27.9363012392
27.9363012083
27.9363011333
27.9363009906
27.9363007931
27.9363005694
27.9363003349
27.9363000905
27.9362998248
27.9362995168
27.9362991417
27.936298682
27.9362981423
27.9362975516
27.9362969525
27.9362963822
27.9362958622
27.9362953942
27.9362949509
27.9362944639
27.9362938197
27.9362929043
27.936291656
27.9362901045
27.9362883934
27.9362868369
27.9362858296
27.9362848459
27.936284222
27.9362838565
27.9362837399
27.9362838866
27.9362842894
27.9362849863
27.9362860662
27.9362876418
27.9362895506
27.9362912225
27.9362923858
27.9362931578
27.9362937275
27.9363084767
27.9363087657
27.9363090307
27.9363093439
27.9363097483
27.936310277
27.9363109368
27.936311641
27.9363122693
27.9363127343
27.9363129901
27.9363130899
27.9363131535
27.9363132573
27.9363134189
27.936313622
27.9363138326
27.9363140114
27.9363141129
27.9363141256
27.9363140767
27.9363139924
27.9363139095
27.9363138551
27.9363138063
27.9363137081
27.9363135284
27.9363132855
27.9363130207
27.9363127631
27.9363125249
27.9363123006
27.9363120612
27.9363117513
27.9363113076
27.9363107098
27.9363100101
27.9363093075
27.9363086983
27.9363082478
27.9363079793
27.9363078687
27.9363078542
27.93630773
27.9363071369
27.9363058957
27.9363040889
27.9363018933
27.9362995935
27.9362976449
27.9362961307
27.9362951171
27.9362944881
27.9362943254
27.9362945631
27.936295214
27.9362962974
27.9362979075
27.9363001856
27.936302833
27.9363050094
27.936306434
27.9363073685
27.9363080532
27.936320193
27.9363202423
27.9363202537
27.9363203607
27.9363206258
27.9363210657
27.9363216578
27.9363223527
27.9363230437
27.936323585
27.9363238661
27.9363239421
27.9363239816
27.9363240738
27.9363242292
27.9363244303
27.9363246475
27.9363248395
27.9363249495
27.9363249599
27.9363249028
27.936324805
27.9363247049
27.936324633
27.9363245656
27.936324447
27.9363242444
27.9363239745
27.9363236797
27.9363233929
27.9363231295
27.9363228831
27.9363226177
27.9363222648
27.9363217555
27.9363210908
27.9363203628
27.936319704
27.9363192142
27.9363189286
27.9363188181
27.9363188353
27.9363189181
27.936318862
27.9363182409
27.9363168536
27.9363147408
27.9363120569
27.936309136
27.9363064313
27.9363044622
27.9363030716
27.936302323
27.9363021598
27.9363024727
27.9363033149
27.9363046899
27.9363067245
27.9363096528
27.936313117
27.9363159469
27.9363177559
27.93631901
27.9363198682
27.936328415
27.9363282142
27.9363279192
27.9363277682
27.9363278697
27.9363282028
27.9363287517
27.9363294376
27.9363301635
27.9363307881
27.9363311674
27.9363313033
27.93633136
27.9363314578
27.936331623
27.9363318485
27.936332109
27.9363323598
27.9363325374
27.9363325976
27.9363325771
27.9363325158
27.936332438
27.9363323846
27.9363323409
27.9363322531
27.9363320831
27.936331841
27.9363315701
27.9363313106
27.9363310811
27.9363308711
27.9363306354
27.9363302971
27.9363297937
27.9363291515
27.9363284926
27.9363279648
27.9363276599
27.9363275596
27.9363276491
27.9363278757
27.9363280813
27.9363280401
27.9363273011
27.9363256193
27.9363229957
27.9363196539
27.9363160202
27.9363125682
27.9363099324
27.9363080009
27.9363069093
27.9363065483
27.9363067989
27.9363077117
27.9363093292
27.9363117966
27.9363154622
27.9363198478
27.9363234237
27.9363256909
27.9363272765
27.9363282346
27.9363307706
27.9363304598
27.9363300346
27.9363297801
27.936329838
27.9363301572
27.936330695
27.9363313611
27.936332068
27.9363326987
27.9363331227
27.9363333077
27.9363333823
27.9363334808
27.9363336502
27.9363338919
27.9363341827
27.936334479
27.9363347154
27.93633484
27.9363348672
27.9363348556
27.9363348387
27.9363348391
27.9363348539
27.9363348371
27.9363347426
27.9363345686
27.9363343602
27.9363341642
27.9363340022
27.9363338601
27.9363336849
27.9363333962
27.9363329371
27.9363323472
27.9363317664
27.9363313443
27.9363311372
27.9363311603
27.9363314327
27.9363318229
27.9363321188
27.9363320861
27.9363312483
27.93632928
27.9363261911
27.9363222648
27.936318005
27.9363139433
27.9363107899
27.9363084827
27.9363071401
27.9363066021
27.9363066807
27.9363073704
27.9363088783
27.936311456
27.9363155645
27.9363206123
27.9363248404
27.9363275734
27.9363294392
27.9363306065
27.9363070198
27.936306579
27.9363059794
27.9363055574
27.9363055173
27.9363057864
27.9363062822
27.9363069308
27.9363076219
27.9363082367
27.9363086577
27.9363088446
27.9363089024
27.936308966
27.9363090967
27.9363093085
27.936309583
27.9363098731
27.9363101115
27.9363102395
27.9363102667
27.9363102586
27.9363102474
27.9363102448
27.9363102518
27.9363102311
27.9363101352
27.9363099581
27.9363097432
27.9363095379
27.9363093677
27.9363092196
27.9363090379
27.9363087429
27.9363082842
27.9363077087
27.9363071606
27.9363067974
27.9363066505
27.9363067795
27.9363072104
27.9363077106
27.9363080505
27.9363079782
27.9363069809
27.9363047041
27.9363011611
27.9362966843
27.9362918655
27.9362873269
27.936283844
27.9362813833
27.9362800975
27.936279693
27.9362800031
27.936281064
27.9362829721
27.9362859636
27.9362905465
27.9362960436
27.9363006761
27.9363036789
27.9363056023
27.936306882
27.9361387904
27.9361383003
27.9361375642
27.9361369677
27.9361368132
27.9361370157
27.9361374543
27.9361380694
27.9361387253
27.9361392902
27.9361396512
27.9361397799
27.9361397888
27.9361398019
27.9361398687
27.9361400108
27.9361402165
27.9361404396
27.9361406084
27.9361406641
27.9361406318
27.9361405642
27.9361404901
27.9361404356
27.9361403911
27.9361403173
27.9361401727
27.9361399558
27.9361397076
27.9361394767
27.9361392939
27.9361391495
27.9361389869
27.9361387272
27.9361383177
27.9361378024
27.9361373164
27.9361370084
27.9361369116
27.9361371222
27.9361376303
27.9361381038
27.9361383609
27.9361380982
27.9361367151
27.9361339495
27.9361298345
27.9361247441
27.9361193449
27.936114335
27.9361105662
27.9361079815
27.9361067212
27.9361064079
27.9361069194
27.9361083359
27.9361106618
27.9361141682
27.9361194409
27.9361257619
27.9361311414
27.9361347248
27.936136966
27.9361385255
27.9354216101
27.9354210881
27.9354202603
27.935419584
27.9354194038
27.935419626
27.9354201141
27.9354207856
27.9354214771
27.9354220446
27.935422376
27.9354224646
27.9354224398
27.9354224121
27.9354224257
27.9354225037
27.9354226293
27.9354227586
27.9354228211
27.9354227899
27.9354226727
27.9354224974
27.9354223308
27.9354222047
27.9354220983
27.9354219672
27.9354217759
27.9354215277
27.935421261
27.93542102
27.9354208346
27.9354206938
27.935420536
27.9354202757
27.935419854
27.9354193032
27.9354187433
27.9354183212
27.935418117
27.9354182128
27.9354185643
27.9354188858
27.9354190544
27.9354186483
27.9354170177
27.9354139681
27.9354094822
27.9354039498
27.9353980922
27.9353926664
27.9353886009
27.9353858353
27.9353844972
27.9353841778
27.935384752
27.9353863164
27.9353889164
27.9353928766
27.9353988363
27.9354060941
27.9354123636
27.935416651
27.9354193107
27.9354211782
27.9333659001
27.9333654963
27.9333646957
27.9333639838
27.9333637799
27.9333639907
27.9333644828
27.933365187
27.9333659237
27.933366531
27.9333669009
27.9333670331
27.9333670527
27.9333670667
27.9333671237
27.9333672528
27.9333674231
27.933367572
27.933367636
27.9333676065
27.9333674867
27.9333672965
27.9333671151
27.9333669815
27.9333668676
27.9333667208
27.9333665038
27.9333662219
27.9333659157
27.9333656302
27.9333653939
27.9333651931
27.9333649581
27.9333645965
27.9333640487
27.9333633459
27.9333626254
27.9333620687
27.9333617835
27.9333617846
27.9333620276
27.9333623147
27.9333624906
27.9333620158
27.9333602566
27.9333569718
27.9333521045
27.9333460766
27.933339671
27.9333337028
27.9333291858
27.9333260805
27.9333245164
27.9333240885
27.9333246445
27.9333262481
27.9333289883
27.9333332216
27.933339669
27.9333476634
27.9333547266
27.9333596975
27.9333628758
27.9333651922
27.9293554754
27.9293554255
27.9293549399
27.9293545241
27.9293545369
27.9293549261
27.9293556002
27.9293564522
27.9293573234
27.9293580392
27.9293584833
27.9293586814
27.9293587743
27.9293588801
27.9293590506
27.9293593055
27.9293596152
27.9293599041
27.9293600945
27.9293601558
27.9293601233
27.9293600311
27.9293599276
27.9293598655
27.9293598167
27.9293597164
27.9293595166
27.9293592213
27.9293588789
27.9293585414
27.9293582424
27.9293579695
27.9293576471
27.9293571728
27.9293564764
27.9293555968
27.9293547012
27.9293540002
27.9293536161
27.9293535159
27.9293536547
27.929353885
27.9293540038
27.9293533626
27.9293512823
27.9293474976
27.929341988
27.9293352335
27.9293280792
27.9293213844
27.9293162435
27.9293126382
27.9293107078
27.9293100725
27.929310546
27.9293121306
27.9293149522
27.9293193799
27.9293262084
27.9293347427
27.9293424098
27.9293478903
27.9293514982
27.9293543416
27.9239222862
27.9239226562
27.9239226465
27.9239228447
27.9239234262
27.9239244441
27.9239257753
27.9239272425
27.9239286674
27.9239298656
27.9239307049
27.9239312214
27.923931589
27.9239319574
27.9239323838
27.9239328771
27.9239334128
27.9239339176
27.9239343
27.9239345132
27.9239345863
27.9239345931
27.9239345774
27.9239345617
27.9239345354
27.923934428
27.9239341744
27.9239337758
27.9239332878
27.9239327699
27.9239322628
27.9239317587
27.9239311781
27.9239304048
27.9239293561
27.9239280821
27.9239267738
27.9239256516
27.9239248437
27.9239243465
27.9239240885
27.9239239829
27.9239237369
27.9239225704
27.9239198272
27.9239152512
27.9239088868
27.9239012585
27.9238932481
27.9238857466
27.9238799223
27.9238758031
27.923873533
27.9238727078
27.9238731067
27.9238747074
27.9238777089
27.923882483
27.9238898554
27.9238990386
27.9239073442
27.923913339
27.9239173096
27.9239206132
27.9183805117
27.9183813708
27.9183818621
27.918382679
27.9183840261
27.9183859125
27.9183881947
27.9183906542
27.9183930638
27.9183952134
27.9183969574
27.9183983149
27.9183994565
27.918400552
27.9184016717
27.9184028081
27.9184039154
27.9184049157
27.9184057077
27.9184062238
27.9184064883
27.9184065787
27.918406565
27.9184064579
27.9184062306
27.9184058348
27.9184052074
27.9184043549
27.9184033454
27.9184022552
27.91840114
27.9184000013
27.9183987595
27.9183972925
27.918395516
27.91839349
27.9183914199
27.9183895346
27.9183879719
27.9183867511
27.9183858387
27.9183851344
27.9183842477
27.9183823734
27.9183788405
27.918373409
27.9183661802
27.9183576949
27.9183488477
27.9183405612
27.918334067
27.9183295148
27.9183269718
27.9183259871
27.9183263497
27.9183279969
27.918331233
27.9183364556
27.9183445118
27.9183544868
27.9183635537
27.9183701822
27.918374582
27.9183782513
27.9134207001
27.9134219989
27.9134228699
27.913424162
27.9134261523
27.9134288265
27.9134320116
27.9134354724
27.9134389621
27.9134422501
27.9134451802
27.9134477544
27.9134501173
27.9134524237
27.9134547356
27.9134570185
27.9134591818
27.9134611051
27.9134626579
27.9134637493
27.9134643747
27.9134645897
27.9134645127
27.9134641663
27.9134635107
27.9134625388
27.9134612138
27.9134595666
27.9134576973
27.9134557146
27.9134536937
27.9134516461
27.9134494954
27.9134471215
27.9134444459
27.9134415369
27.9134386091
27.9134358934
27.9134335438
27.9134316268
27.9134301247
27.9134288696
27.9134273878
27.913424866
27.9134206374
27.9134144743
27.913406485
27.9133971985
27.9133875383
27.9133784792
27.9133712835
27.913366324
27.9133634642
27.9133622685
27.9133625645
27.9133641627
27.913367516
27.9133730858
27.9133817394
27.9133923851
27.913402096
27.9134092626
27.9134140251
27.9134178692
27.9091944014
27.9091958948
27.9091968789
27.9091983585
27.90920067
27.9092037928
27.9092075492
27.9092117134
27.9092160355
27.9092202717
27.9092242549
27.9092279756
27.9092315623
27.9092351456
27.9092387576
27.9092423225
27.9092456952
27.9092486986
27.9092511624
27.9092529807
27.9092541268
27.9092545832
27.9092545122
27.9092540047
27.909253009
27.909251551
27.9092496219
27.9092472891
27.9092446862
27.9092419487
27.9092391707
27.9092363737
27.9092334819
27.9092303777
27.9092269911
27.9092234024
27.9092198309
27.9092165135
27.9092136251
27.9092112585
27.9092093922
27.9092077913
27.909205898
27.9092028843
27.9091981094
27.9091913514
27.9091826775
27.9091726098
27.9091621532
27.9091523589
27.9091444474
27.9091390518
27.9091358041
27.9091343596
27.9091345205
27.9091359653
27.9091393056
27.9091450817
27.9091541548
27.9091651942
27.9091752364
27.9091826756
27.9091875864
27.9091913078
27.9065195953
27.9065210201
27.9065217592
27.9065230146
27.9065251905
27.9065282806
27.9065321112
27.9065364629
27.9065410691
27.9065456704
27.9065500852
27.9065542844
27.9065583831
27.9065625117
27.906566699
27.9065708506
27.9065747913
27.9065783239
27.9065812818
27.9065835776
27.9065852007
27.9065861214
27.9065864151
27.9065862195
27.9065855363
27.9065843228
27.9065825567
27.9065803189
27.9065777489
27.906574986
27.9065721328
27.9065692169
27.9065661645
27.9065628611
27.9065592442
27.906555406
27.9065515777
27.9065480122
27.906544916
27.9065424063
27.906540446
27.906538742
27.9065366694
27.906533375
27.9065282318
27.906520991
27.9065116741
27.90650085
27.9064896543
27.9064792213
27.9064706479
27.906464769
27.9064610593
27.9064593022
27.9064592481
27.9064605077
27.9064637628
27.9064697164
27.9064791703
27.906490476
27.906500701
27.9065082828
27.9065132196
27.9065166232
27.9059220437
27.9059234482
27.9059239406
27.9059248787
27.9059267706
27.9059296411
27.9059333211
27.9059375839
27.9059421197
27.9059466329
27.9059509216
27.9059549489
27.9059588424
27.9059627565
27.9059667423
27.9059707166
27.9059745111
27.9059779435
27.9059808733
27.9059832378
27.9059850598
27.9059863811
27.9059871634
27.9059874587
27.9059873734
27.9059868003
27.9059856343
27.905983957
27.9059818962
27.905979583
27.9059771221
27.9059745422
27.9059717681
27.9059686826
27.9059652263
27.9059615022
27.9059577532
27.9059542585
27.9059512637
27.9059489066
27.9059471328
27.9059456105
27.9059436673
27.9059404099
27.9059351889
27.9059277123
27.9059179826
27.905906624
27.905894878
27.9058839696
27.9058749022
27.9058685227
27.9058642287
27.9058618814
27.9058613509
27.9058622563
27.905865249
27.9058712948
27.9058810896
27.9058926736
27.9059031586
27.9059109756
27.9059160331
27.905919278
27.9063380354
27.9063394046
27.9063396556
27.9063402384
27.9063417975
27.9063443675
27.9063477837
27.9063518027
27.906356069
27.9063602607
27.9063641449
27.906367671
27.906370993
27.9063743054
27.9063776893
27.9063810875
27.9063843665
27.9063873934
27.9063900777
27.9063923826
27.9063943409
27.90639605
27.906397535
27.9063986504
27.9063993459
27.9063996459
27.9063994215
27.906398611
27.9063973269
27.9063957046
27.9063938476
27.9063917828
27.9063894333
27.9063866807
27.906383472
27.9063799193
27.9063762793
27.9063728606
27.9063699446
27.9063676893
27.9063660369
27.9063646398
27.9063627952
27.9063595627
27.9063542522
27.9063465283
27.9063364217
27.9063246385
27.9063124844
27.9063011913
27.906291685
27.9062849087
27.9062802985
27.9062778015
27.9062771913
27.9062780079
27.9062809279
27.906287195
27.9062973049
27.9063090343
27.9063196373
27.9063275444
27.906332575
27.9063356226
27.9089199107
27.9089210615
27.9089209708
27.9089210702
27.908922147
27.9089242789
27.9089272888
27.908930897
27.9089346754
27.9089382692
27.9089413899
27.9089439945
27.9089463061
27.9089485749
27.9089509244
27.9089533512
27.9089557918
27.908958188
27.908960519
27.9089628056
27.9089651017
27.9089674839
27.9089699929
27.9089724564
27.9089746628
27.908976471
27.9089776951
27.9089783
27.9089783746
27.9089779474
27.9089770921
27.9089758775
27.9089742061
27.9089719465
27.9089690566
27.9089656767
27.9089620966
27.9089586704
27.9089557274
27.9089534531
27.9089517866
27.9089503595
27.9089484305
27.9089450127
27.9089393798
27.9089311882
27.9089205094
27.9089081045
27.9088953524
27.908883553
27.9088736456
27.9088665912
27.9088618682
27.908859444
27.9088588626
27.9088597178
27.9088627829
27.9088693552
27.908879817
27.9088917031
27.9089024088
27.9089103537
27.9089152751
27.9089180057
27.9145525952
27.9145536011
27.9145533497
27.9145532206
27.9145539824
27.9145556851
27.9145582497
27.9145614099
27.9145646394
27.9145675282
27.9145696472
27.9145710715
27.9145721473
27.9145731815
27.9145743449
27.9145757009
27.9145772609
27.9145790366
27.9145810559
27.914583366
27.9145860207
27.9145890552
27.9145924787
27.9145961786
27.9145998979
27.914603361
27.914606325
27.9146086519
27.9146102863
27.9146112541
27.9146116721
27.9146115809
27.9146108396
27.9146092715
27.9146068273
27.914603685
27.9146001847
27.9145967255
27.9145936753
27.914591247
27.9145893921
27.9145877398
27.9145855255
27.9145817295
27.9145755946
27.9145667754
27.9145554102
27.9145423636
27.9145289438
27.9145165738
27.9145062276
27.9144988985
27.9144940043
27.9144914603
27.9144907658
27.9144916014
27.9144947745
27.9145016511
27.9145124741
27.9145245711
27.9145354589
27.9145435328
27.9145484628
27.9145510425
27.9234336874
27.9234347634
27.923434694
27.9234345599
27.9234352029
27.9234366567
27.9234387202
27.9234415349
27.9234443288
27.9234465152
27.9234475273
27.9234477582
27.9234476741
27.9234476048
27.9234477691
27.9234482916
27.9234492112
27.9234505691
27.9234523865
27.9234546828
27.9234574948
27.9234608422
27.9234647061
27.923469025
27.9234736202
27.9234782284
27.9234825676
27.9234863935
27.9234895527
27.9234919833
27.9234936913
27.9234946476
27.9234949205
27.9234943359
27.9234925903
27.9234898641
27.9234865787
27.9234831889
27.9234801031
27.9234775706
27.9234755704
27.9234737526
27.9234713344
27.9234672498
27.9234606942
27.9234513442
27.9234394776
27.9234261319
27.9234120549
27.9233990719
27.923388158
27.923380377
27.9233750502
27.9233720322
27.923370973
27.923371561
27.9233745859
27.9233816525
27.9233927872
27.923405133
27.9234162753
27.9234245762
27.9234296489
27.9234322693
27.9356144777
27.9356153942
27.9356154701
27.9356151945
27.9356156803
27.9356172282
27.9356196828
27.9356223537
27.9356247489
27.9356260658
27.9356260273
27.9356253095
27.935624308
27.9356233932
27.935622914
27.9356229248
27.9356234405
27.9356245709
27.9356262562
27.9356284715
27.9356312457
27.9356346221
27.9356386059
27.9356431645
27.9356481791
27.93565345
27.9356587258
27.9356637404
27.9356682741
27.9356721502
27.9356752297
27.9356774345
27.9356786624
27.9356790024
27.9356782616
27.9356762324
27.9356733531
27.9356702022
27.935667245
27.9356647726
27.9356628171
27.9356610362
27.9356586094
27.9356544128
27.9356476167
27.9356378888
27.9356253018
27.9356106913
27.9355959044
27.935582444
27.9355709453
27.9355626196
27.9355567877
27.9355532664
27.9355518047
27.9355520846
27.9355548946
27.9355620417
27.9355733061
27.9355857634
27.9355970953
27.9356055873
27.9356107235
27.9356132806
27.9509738558
27.950974118
27.9509740298
27.9509731447
27.9509727141
27.950974916
27.950978812
27.9509812686
27.9509830648
27.9509835816
27.9509828801
27.9509816111
27.9509801746
27.9509789479
27.950978261
27.9509781761
27.9509786809
27.9509798306
27.9509815079
27.9509836652
27.9509863545
27.9509896746
27.950993686
27.9509983705
27.9510036143
27.9510092508
27.9510150903
27.9510209271
27.9510265666
27.9510317957
27.9510363101
27.9510399046
27.9510423665
27.9510435697
27.9510436996
27.9510426236
27.951040356
27.9510376003
27.95103493
27.9510326898
27.9510309726
27.9510293951
27.9510270596
27.9510228017
27.9510159357
27.9510062827
27.9509924018
27.9509748735
27.950959574
27.9509461326
27.9509341287
27.9509250898
27.9509185576
27.9509143795
27.9509123251
27.9509122234
27.9509147867
27.9509218271
27.9509330374
27.9509455145
27.950957034
27.950965707
27.9509708112
27.9509731182
27.9682535
27.9682530213
27.968252503
27.968251324
27.9682507435
27.9682515945
27.9682534535
27.9682554077
27.968257019
27.9682571651
27.9682562679
27.968254983
27.9682537491
27.9682528706
27.9682525735
27.9682528499
27.968253754
27.9682552703
27.9682571498
27.9682593546
27.9682620017
27.9682652472
27.9682691987
27.9682738577
27.9682791199
27.968284849
27.9682909076
27.9682971673
27.9683034818
27.9683096948
27.9683155387
27.9683206344
27.9683245329
27.9683269186
27.9683278883
27.9683276662
27.9683262458
27.9683240433
27.9683218162
27.9683200156
27.9683186672
27.9683173318
27.9683150398
27.9683105976
27.968303218
27.9682925834
27.9682784555
27.9682622461
27.9682465618
27.9682319949
27.9682191339
27.9682091136
27.9682015398
27.9681964059
27.9681934609
27.9681927972
27.9681949386
27.9682016569
27.9682128181
27.9682254471
27.9682371818
27.9682459481
27.9682510202
27.9682531731
27.9845547886
27.9845538954
27.9845526399
27.9845509376
27.9845496774
27.9845494796
27.9845497939
27.9845508128
27.9845515437
27.9845506716
27.9845495742
27.9845486632
27.984548001
27.9845478598
27.9845483884
27.9845495793
27.9845514151
27.9845536855
27.9845561266
27.9845586968
27.984561518
27.984564777
27.9845686352
27.9845731685
27.9845783473
27.9845840707
27.9845901992
27.9845966385
27.9846033403
27.9846102598
27.9846171848
27.9846236833
27.9846291749
27.9846331461
27.9846353504
27.9846361135
27.984635706
27.984634359
27.9846327537
27.9846314724
27.9846305448
27.9846294645
27.9846271145
27.9846222611
27.9846142836
27.9846030489
27.9845887954
27.9845729733
27.9845563522
27.9845407168
27.984526808
27.9845158299
27.9845073027
27.9845013303
27.9844975667
27.9844963321
27.9844979575
27.9845042828
27.9845154245
27.9845281005
27.9845395969
27.9845478932
27.98455265
27.9845546483
27.9967551676
27.9967536227
27.9967513007
27.9967485027
27.9967457438
27.9967441982
27.9967435807
27.9967435062
27.9967431162
27.9967413515
27.9967397465
27.9967388879
27.9967386122
27.996739162
27.9967408206
27.9967434732
27.9967468026
27.9967504755
27.9967542173
27.9967579131
27.9967616015
27.9967654407
27.9967696463
27.9967744052
27.9967797813
27.9967856873
27.996791989
27.9967986862
27.9968058494
27.9968134517
27.9968212589
27.9968289109
27.9968358921
27.9968416206
27.9968456039
27.9968477666
27.9968485071
27.996848249
27.9968474702
27.996846732
27.9968461866
27.9968453748
27.9968430952
27.9968379777
27.9968294061
27.9968173487
27.9968021518
27.9967849438
27.9967669184
27.9967500736
27.9967352308
27.9967237335
27.9967147929
27.9967082899
27.9967038765
27.9967022282
27.9967034682
27.9967095174
27.9967204969
27.9967326902
27.9967432666
27.9967505389
27.9967544335
27.996755661
28.003649368
28.0036464336
28.0036425551
28.0036380481
28.0036334855
28.0036300441
28.0036277888
28.0036261502
28.0036246053
28.0036223049
28.0036202134
28.0036190914
28.0036189692
28.0036200985
28.003622853
28.0036269534
28.0036319692
28.0036374892
28.0036431861
28.003648818
28.00365428
28.0036596301
28.0036650514
28.0036707343
28.0036767572
28.003683081
28.0036897206
28.0036968629
28.0037046516
28.0037129578
28.0037215123
28.0037300547
28.0037382134
28.0037454186
28.0037510659
28.0037548308
28.0037568694
28.0037576507
28.0037577615
28.0037576067
28.0037573531
28.0037567147
28.0037544811
28.0037491829
28.0037400429
28.0037268057
28.0037101576
28.0036915221
28.0036723566
28.0036544286
28.0036386426
28.0036263776
28.0036168721
28.0036099119
28.0036048415
28.0036027288
28.00360369
28.003609434
28.0036200347
28.0036317168
28.0036416349
28.003648219
28.0036510951
28.0036510924
28.0062463309
28.0062420523
28.0062367089
28.0062306741
28.0062246171
28.006219583
28.0062157883
28.0062127237
28.0062100794
28.0062073407
28.0062047351
28.0062032112
28.0062030834
28.0062044669
28.0062076964
28.006212488
28.0062184644
28.0062252214
28.0062324072
28.0062397051
28.0062469109
28.006253971
28.0062609276
28.006267819
28.0062746534
28.0062814907
28.0062885486
28.0062961102
28.0063043174
28.0063130321
28.0063220762
28.0063312226
28.0063401362
28.0063482612
28.0063549908
28.0063599279
28.0063631015
28.0063649138
28.0063658988
28.0063663566
28.0063664305
28.0063660316
28.0063639745
28.0063585798
28.0063489166
28.0063346082
28.0063168245
28.0062972405
28.006277291
28.0062585916
28.0062420364
28.0062288043
28.0062184191
28.0062107501
28.006205161
28.0062027855
28.0062035616
28.006209067
28.0062193774
28.0062310234
28.0062410753
28.0062476465
28.0062499775
28.0062491023
28.0066206629
28.006615934
28.0066099398
28.0066031797
28.0065964559
28.0065907294
28.006586263
28.0065824564
28.006578899
28.0065754946
28.0065725136
28.006570725
28.0065704486
28.0065717013
28.006574793
28.0065794853
28.0065854487
28.0065923021
28.006599709
28.0066073668
28.0066150728
28.0066227388
28.0066303135
28.0066377216
28.0066449212
28.0066520133
28.0066592729
28.0066669691
28.006675227
28.0066839861
28.0066931685
28.0067025568
28.0067117904
28.0067203175
28.0067275488
28.0067330844
28.0067369275
28.0067394528
28.0067411209
28.0067421875
28.0067426496
28.006742641
28.0067410862
28.0067359698
28.0067263215
28.0067119418
28.006694044
28.006674185
28.0066539333
28.0066349265
28.0066179934
28.0066040765
28.0065929058
28.0065848012
28.006579024
28.0065765341
28.006577302
28.0065827696
28.0065929956
28.0066049459
28.0066155392
28.0066223884
28.0066246435
28.0066236479
28.0065381908
28.006533206
28.0065268256
28.0065196534
28.006512547
28.0065064423
28.0065016467
28.0064975228
28.0064935643
28.0064898808
28.0064868315
28.0064849154
28.0064844743
28.0064855355
28.0064883125
28.0064926563
28.0064982996
28.0065049027
28.0065121468
28.0065197439
28.006527517
28.006535381
28.0065432371
28.006550939
28.0065584045
28.0065657282
28.0065731623
28.0065809316
28.006589159
28.0065978564
28.0066070406
28.0066165068
28.0066258823
28.006634613
28.0066421225
28.0066480249
28.0066523242
28.0066553688
28.0066575744
28.0066591591
28.0066599915
28.0066602653
28.0066591217
28.0066543919
28.0066449145
28.0066305822
28.0066126247
28.0065925747
28.0065722001
28.006553151
28.0065361994
28.0065220972
28.0065106623
28.0065023092
28.0064965122
28.0064940844
28.0064948801
28.0065003414
28.006510524
28.0065225978
28.0065333407
28.0065401622
28.0065423004
28.0065412638
28.0059453896
28.0059400485
28.0059332205
28.0059255595
28.0059179197
28.0059111809
28.0059057343
28.0059009982
28.0058963794
28.0058920621
28.0058886335
28.0058863684
28.0058855095
28.0058861889
28.0058884324
28.0058922481
28.0058974394
28.0059037136
28.0059107728
28.0059183609
28.0059263331
28.0059346475
28.0059431355
28.0059515396
28.0059596918
28.0059676256
28.0059755322
28.0059835779
28.0059919079
28.0060006229
28.0060098414
28.0060194003
28.0060289611
28.0060379921
28.0060459077
28.0060522869
28.006057135
28.0060607787
28.0060636138
28.0060658079
28.0060671618
28.0060677947
28.0060670247
28.0060626746
28.0060533146
28.0060389393
28.0060207963
28.006000437
28.0059798866
28.0059607908
28.0059437711
28.0059294588
28.0059178676
28.0059094713
28.0059038727
28.0059016903
28.0059026358
28.0059081378
28.0059182449
28.00593041
28.00594128
28.0059479803
28.0059498627
28.0059486701
28.0045873414
28.0045813316
28.004573762
28.0045653023
28.0045567351
28.0045488911
28.0045422575
28.0045364402
28.0045308348
28.0045255707
28.0045213313
28.0045185344
28.0045171069
28.004517276
28.004518886
28.0045221313
28.0045269287
28.0045330501
28.0045401949
28.00454812
28.0045567337
28.0045660231
28.0045756885
28.0045853118
28.0045946356
28.004603655
28.0046124991
28.0046211589
28.004629843
28.0046387871
28.0046482206
28.0046580503
28.0046679979
28.0046775683
28.0046861361
28.0046931579
28.0046986758
28.0047030348
28.0047066051
28.0047095059
28.0047114324
28.0047123291
28.0047116645
28.0047073886
28.0046978631
28.0046831807
28.0046646148
28.0046437887
28.0046228395
28.0046033972
28.0045862182
28.0045718694
28.0045603692
28.0045519647
28.0045464419
28.0045444667
28.0045456056
28.0045512278
28.0045613305
28.0045735446
28.0045844395
28.0045910024
28.004592636
28.0045911216
28.0023439339
28.0023372131
28.0023288263
28.0023194361
28.0023097709
28.002300658
28.0022926517
28.0022854065
28.0022780946
28.002271676
28.0022664332
28.0022626549
28.0022605766
28.0022601681
28.0022611687
28.0022638519
28.0022683382
28.0022744422
28.0022818479
28.0022904205
28.0023004348
28.0023110516
28.0023220479
28.0023330412
28.0023437807
28.0023542489
28.0023644593
28.0023740293
28.0023833163
28.002392709
28.0024025593
28.0024128691
28.0024233912
28.002433644
28.0024429847
28.0024507352
28.0024569458
28.0024619549
28.0024661412
28.002469588
28.0024718656
28.0024727975
28.0024719916
28.0024675529
28.0024577832
28.0024427741
28.0024237484
28.0024023885
28.0023807667
28.0023605557
28.0023430309
28.0023286507
28.0023172915
28.0023088425
28.0023032518
28.0023013869
28.0023027161
28.0023085248
28.0023187336
28.0023310902
28.002342094
28.002348635
28.0023501116
28.0023482606
27.9991741201
27.9991667571
27.9991576184
27.9991473394
27.9991366665
27.9991264818
27.9991173007
27.9991084719
27.9990988054
27.9990912237
27.9990850491
27.9990802438
27.9990769791
27.9990760922
27.999076451
27.9990784308
27.999082459
27.9990883999
27.9990959965
27.999105465
27.9991176133
27.9991295493
27.9991416804
27.9991539942
27.9991663322
27.9991784688
27.9991901262
27.9992007058
27.9992107719
27.9992207202
27.9992310751
27.9992419265
27.9992529562
27.9992636303
27.9992734297
27.9992817387
27.999288579
27.9992940979
27.9992986837
27.999302403
27.9993047736
27.9993056135
27.9993047084
27.9993002815
27.9992905713
27.9992754987
27.9992560713
27.9992341319
27.9992117824
27.99919087
27.9991729415
27.9991584311
27.9991472686
27.9991389182
27.9991333094
27.9991315461
27.9991331027
27.9991391664
27.9991495635
27.9991621699
27.9991733942
27.9991799403
27.9991812145
27.9991789853