/*--------------------------------*- C++ -*----------------------------------*\
  =========                 |
  \\      /  F ield         | OpenFOAM: The Open Source CFD Toolbox
   \\    /   O peration     | Website:  https://openfoam.org
    \\  /    A nd           | Version:  6
     \\/     M anipulation  |
\*---------------------------------------------------------------------------*/
FoamFile
{
    version     2.0;
    format      ascii;
    class       volScalarField;
    location    "1e-08";
    object      T;
}
// * * * * * * * * * * * * * * * * * * * * * * * * * * * * * * * * * * * * * //

dimensions      [0 0 0 1 0 0 0];

internalField   nonuniform List<scalar> 
12288
(
593.000184158
593.000189051
593.000193251
593.000197113
593.000201304
593.000206325
593.000212102
593.000218063
593.000223521
593.000227953
593.0002311
593.000233156
593.000234698
593.000236231
593.000237953
593.000239804
593.00024159
593.000243076
593.000244004
593.000244288
593.000244185
593.000243817
593.000243323
593.000242867
593.000242377
593.00024154
593.000240133
593.000238252
593.00023614
593.000233947
593.000231682
593.000229226
593.000226363
593.000222855
593.000218567
593.000213589
593.000208239
593.000202939
593.000198021
593.000193631
593.000189686
593.000185818
593.000181285
593.000174977
593.000165843
593.000153385
593.000137981
593.000121057
593.000105447
593.000094634
593.000084641
593.000078142
593.000074396
593.000073258
593.000074842
593.000079252
593.000086864
593.000098404
593.000114688
593.000133948
593.000151042
593.000163503
593.000172158
593.00017857
593.000263131
593.000265878
593.000268748
593.000272228
593.000276529
593.000281751
593.000287823
593.000294012
593.000299412
593.000303426
593.000305843
593.000307189
593.000308377
593.000309941
593.000311933
593.00031413
593.000316215
593.000317891
593.000318871
593.000319083
593.000318843
593.000318376
593.000317913
593.000317596
593.000317198
593.000316288
593.00031467
593.000312531
593.000310172
593.000307776
593.000305437
593.000303157
593.000300779
593.000297918
593.000294056
593.000288923
593.000282802
593.000276421
593.000270571
593.000265835
593.000262536
593.000260707
593.000259914
593.000258932
593.000254947
593.000246079
593.000232747
593.000216173
593.000198289
593.000182697
593.000170738
593.000162713
593.000157716
593.000156403
593.000158224
593.000163273
593.000171736
593.000184388
593.000202169
593.000222259
593.0002381
593.000248078
593.000254644
593.000259713
593.000364548
593.00036391
593.000363319
593.000363588
593.00036528
593.000368537
593.000373127
593.000378587
593.000383974
593.000388053
593.000389942
593.00039025
593.000390407
593.000391135
593.000392498
593.000394286
593.000396205
593.000397903
593.000398935
593.000399118
593.000398753
593.000398095
593.000397455
593.000397048
593.00039664
593.000395767
593.00039418
593.000392052
593.000389751
593.00038755
593.000385572
593.000383776
593.000381888
593.000379355
593.000375571
593.000370468
593.000364765
593.000359576
593.000355781
593.000353798
593.000353332
593.000354233
593.000355676
593.000356469
593.000352924
593.000342612
593.000325907
593.000304146
593.000280048
593.000257392
593.000240571
593.000228704
593.000222292
593.000220845
593.000223464
593.000230567
593.000242267
593.000259661
593.000284442
593.000312887
593.000335315
593.000349018
593.000358078
593.000363481
593.000438783
593.000436643
593.000433682
593.000432012
593.000432491
593.000434869
593.000439002
593.000444267
593.000449849
593.000454541
593.000457114
593.000457707
593.000457817
593.000458403
593.000459608
593.000461339
593.000463381
593.000465361
593.000466766
593.00046725
593.000467099
593.000466638
593.000466095
593.000465778
593.00046553
593.000464908
593.000463618
593.000461771
593.000459739
593.000457854
593.000456259
593.000454865
593.000453318
593.00045099
593.000447329
593.000442494
593.000437462
593.000433441
593.000431254
593.000430758
593.000431916
593.000434289
593.000436306
593.000436556
593.00043112
593.0004175
593.000395796
593.000367889
593.000337322
593.000308039
593.000285297
593.000268691
593.000259263
593.000256107
593.00025823
593.00026606
593.00028005
593.000301515
593.000333045
593.000369921
593.000399458
593.000417987
593.000430751
593.000437879
593.000458321
593.000455617
593.000452056
593.000450052
593.000450622
593.000453335
593.000457833
593.000463337
593.000469106
593.00047415
593.000477394
593.000478668
593.000479123
593.000479848
593.000481196
593.000483159
593.000485524
593.000487908
593.000489773
593.000490735
593.000490945
593.000490858
593.000490764
593.000490836
593.000491003
593.000490896
593.000490136
593.000488727
593.000487064
593.000485527
593.000484285
593.00048322
593.000481911
593.000479699
593.00047608
593.000471323
593.000466551
593.000463013
593.000461259
593.000461397
593.000463631
593.00046698
593.000469527
593.000469542
593.000462989
593.000446861
593.000421223
593.000388394
593.000352541
593.000318093
593.000290958
593.000271195
593.000259691
593.000255092
593.000255812
593.000261895
593.000275078
593.000297566
593.000332898
593.000375359
593.000410365
593.00043283
593.0004481
593.000457252
593.000251725
593.000247911
593.000242906
593.000239645
593.000239524
593.00024194
593.000246252
593.000251777
593.000257596
593.000262696
593.000266113
593.00026761
593.000268115
593.00026871
593.000269868
593.000271685
593.000273996
593.000276395
593.000278313
593.00027931
593.000279519
593.00027946
593.000279397
593.000279416
593.000279492
593.0002793
593.000278451
593.000276926
593.000275096
593.00027335
593.000271887
593.000270603
593.000269054
593.000266598
593.000262794
593.000257974
593.000253313
593.000250118
593.000248749
593.000249632
593.000253085
593.000257327
593.000260234
593.000259903
593.000252011
593.000233325
593.000203925
593.000166527
593.000126016
593.000087558
593.000057621
593.000036537
593.000025417
593.00002188
593.00002453
593.000033678
593.000050229
593.000076358
593.000115912
593.000162218
593.000200593
593.000225226
593.000240943
593.000250951
592.998803815
592.998799531
592.998793369
592.998788692
592.998787673
592.998789571
592.998793445
592.998798742
592.998804323
592.998809065
592.998812064
592.998813186
592.998813354
592.998813559
592.998814224
592.99881551
592.998817291
592.998819159
592.998820504
592.998820908
592.99882061
592.998820042
592.998819446
592.998819017
592.998818645
592.998817986
592.998816705
592.998814813
592.998812661
592.998810656
592.99880904
592.998807731
592.998806282
592.998804057
592.998800604
592.998796225
592.99879203
592.998789267
592.998788257
592.998789751
592.998793821
592.99879784
592.998800054
592.998798117
592.998787025
592.998764296
592.998730158
592.998687654
592.998642276
592.998599807
592.99856735
592.998545096
592.99853408
592.998531277
592.998535653
592.998547811
592.998567941
592.998598534
592.998644029
592.998697348
592.99874203
592.998771455
592.99878977
592.998802069
592.992670959
592.992666326
592.992659344
592.992653927
592.992652622
592.992654622
592.992658842
592.992664539
592.992670343
592.992675032
592.992677723
592.992678451
592.992678294
592.992678143
592.992678341
592.992679066
592.992680168
592.992681238
592.992681714
592.992681404
592.992680386
592.992678924
592.992677576
592.992676568
592.992675695
592.992674581
592.992672943
592.99267082
592.992668545
592.992666496
592.992664906
592.992663677
592.992662319
592.992660143
592.992656638
592.992652018
592.992647254
592.992643557
592.992641685
592.992642285
592.99264511
592.992647881
592.99264939
592.992646365
592.992633289
592.992608222
592.992571017
592.992524822
592.992475569
592.992429521
592.992394429
592.992370534
592.992358796
592.992355932
592.992360825
592.992374214
592.992396662
592.99243112
592.992482497
592.992543729
592.992595895
592.992631203
592.992653035
592.992667918
592.975205095
592.975201412
592.975194651
592.975188932
592.975187422
592.975189303
592.975193525
592.975199447
592.975205557
592.975210501
592.975213434
592.975214468
592.975214647
592.975214819
592.975215379
592.975216534
592.975217995
592.975219226
592.975219734
592.975219459
592.975218432
592.975216865
592.975215422
592.97521438
592.975213469
592.975212248
592.975210422
592.975208047
592.975205472
592.975203081
592.9752011
592.975199407
592.975197446
592.975194469
592.975189963
592.975184138
592.975178084
592.975173291
592.975170784
592.975170652
592.975172606
592.975175098
592.975176722
592.975173255
592.975159157
592.975132127
592.97509173
592.975041361
592.974987454
592.974936772
592.974897777
592.974870937
592.974857242
592.974853439
592.974858133
592.97487185
592.974895531
592.974932366
592.97498792
592.975055337
592.975114074
592.975155032
592.975181184
592.975199805
592.941370175
592.941369468
592.94136543
592.941362228
592.941362596
592.941366047
592.94137187
592.94137909
592.941386363
592.94139223
592.941395794
592.941397385
592.941398197
592.941399154
592.941400667
592.941402889
592.941405528
592.941407931
592.941409482
592.941409977
592.941409698
592.941408949
592.941408167
592.941407736
592.941407375
592.941406542
592.941404853
592.941402361
592.941399478
592.941396644
592.941394128
592.941391821
592.941389122
592.941385202
592.941379457
592.94137215
592.941364611
592.941358599
592.941355217
592.941354243
592.941355311
592.941357272
592.94135844
592.941353597
592.941336771
592.941305527
592.941259739
592.941203261
592.941143033
592.941086195
592.941041878
592.941010789
592.94099398
592.940988395
592.940992347
592.941005935
592.941030406
592.941069029
592.941127914
592.941199911
592.941263631
592.941308757
592.941338475
592.941361475
592.895846184
592.895848968
592.895848968
592.895850851
592.895856065
592.895864908
592.895876302
592.895888754
592.895900753
592.89591075
592.895917716
592.895922063
592.895925262
592.895928508
592.895932239
592.895936513
592.895941095
592.895945345
592.895948509
592.895950264
592.89595089
592.895950972
592.895950895
592.895950828
592.895950632
592.895949694
592.895947495
592.895944076
592.89593991
592.895935496
592.895931162
592.895926841
592.895921909
592.895915428
592.895906678
592.895896001
592.895884931
592.895875318
592.895868298
592.895863928
592.895861664
592.895860707
592.895858807
592.895849564
592.895827135
592.895789269
592.895736344
592.895672559
592.895605138
592.895541486
592.895491368
592.895455924
592.895436202
592.895428984
592.895432333
592.895446142
592.895472199
592.895513864
592.895577469
592.895655008
592.895724088
592.895773472
592.895806226
592.895833104
592.849635165
592.849641923
592.84964609
592.84965319
592.849664811
592.849680933
592.849700302
592.849721074
592.849741344
592.849759354
592.849773957
592.849785416
592.849795188
592.849804639
592.849814293
592.849824054
592.849833519
592.849842003
592.849848652
592.849852966
592.849855216
592.849856012
592.84985593
592.849855053
592.849853119
592.849849699
592.84984429
592.849836982
592.849828366
592.849819078
592.84980957
592.849799856
592.849789321
592.849776981
592.849762097
592.849745083
592.849727592
592.849711552
592.849698184
592.84968772
592.849679921
592.849673976
592.849666762
592.849651588
592.849622594
592.849577656
592.849517565
592.849446627
592.849372156
592.849301851
592.849246044
592.849206882
592.84918481
592.849176261
592.849179332
592.849193587
592.849221643
592.849267157
592.849336587
592.84942081
592.849496269
592.849550906
592.849587223
592.849617257
592.808324618
592.808334897
592.808342158
592.808353212
592.808370187
592.808392856
592.808419731
592.808448832
592.80847809
592.808505592
592.808530106
592.808551741
592.808571749
592.808591382
592.808611084
592.808630512
592.808648879
592.808665151
592.808678221
592.808687379
592.808692669
592.808694538
592.808693932
592.808691025
592.808685487
592.808677223
592.808665946
592.808651962
592.808636131
592.808619359
592.808602262
592.808584943
592.808566815
592.808546906
592.808524526
592.808500157
592.808475522
592.808452572
592.808432659
592.808416389
592.808403663
592.808393162
592.80838104
592.808360511
592.808325805
592.808274871
592.808208492
592.808130845
592.808049486
592.807972625
592.807910898
592.807868173
592.807843413
592.807833157
592.807835646
592.807849521
592.807878617
592.807927135
592.808001596
592.808091398
592.808172179
592.808231211
592.808270458
592.808302028
592.77323119
592.773242903
592.773250983
592.773263514
592.773283096
592.773309422
592.773340963
592.773375823
592.773411911
592.773447219
592.773480422
592.773511525
592.773541632
592.773571808
592.773602262
592.773632302
592.773660681
592.773685901
592.773706533
592.773721732
592.773731382
592.773735337
592.773734862
592.773730694
592.773722449
592.773710267
592.773694087
592.773674521
592.773652707
592.77362977
592.773606486
592.773583042
592.773558852
592.77353296
592.773504748
592.773474804
592.773444892
592.773417007
592.773392665
592.773372695
592.77335698
592.77334365
592.773328164
592.773303622
592.773264475
592.77320867
592.773136597
592.773052365
592.772964231
592.772881137
592.772813411
592.772766841
592.772738764
592.772726436
592.772727712
592.772740284
592.77276935
592.772819738
592.772897752
592.772990803
592.773074295
592.773135529
592.773175892
592.773206469
592.751397611
592.751408592
592.751414535
592.751425114
592.751443472
592.751469419
592.751501452
592.75153772
592.751575997
592.751614143
592.75165071
592.751685536
592.751719621
592.751754028
592.751788948
592.751823549
592.751856355
592.751885725
592.751910283
592.75192934
592.751942924
592.751950879
592.751953572
592.75195219
592.751946843
592.751937011
592.751922504
592.751904047
592.751882815
592.75185996
592.751836326
592.75181215
592.751786858
592.751759512
592.751729563
592.751697705
592.751665809
592.751635996
592.751610037
592.751588969
592.751572558
592.751558467
592.751541613
592.751514885
592.75147281
592.75141306
592.751335622
592.751244996
592.751150544
592.751061988
592.750988669
592.750937801
592.75090571
592.750890563
592.75088989
592.750900819
592.750929203
592.750981236
592.751062521
592.751157847
592.75124292
592.751305358
592.751345875
592.751373837
592.746823569
592.746834311
592.746838153
592.74684615
592.746862238
592.746886435
592.746917242
592.74695273
592.746990328
592.747027622
592.747063015
592.747096298
592.747128575
592.747161099
592.747194226
592.747227216
592.747258659
592.747287062
592.747311288
592.747330858
592.747346012
592.747357153
592.747363981
592.747366694
592.747366241
592.747361744
592.747352249
592.747338479
592.747321517
592.747302438
592.747282103
592.747260757
592.747237814
592.747212318
592.747183745
592.747152877
592.747121679
592.747092468
592.747067319
592.747047451
592.747032523
592.747019908
592.747004163
592.746977841
592.746935246
592.74687367
592.746792935
592.746697971
592.746598992
592.746506484
592.746429061
592.746373982
592.746337158
592.746317307
592.746312787
592.74632089
592.74634734
592.746400295
592.746484364
592.746581957
592.746669146
592.746733404
592.746774739
592.746801334
592.750814193
592.750824485
592.75082618
592.75083119
592.7508445
592.750866214
592.750894829
592.750928233
592.750963472
592.750997932
592.751029786
592.751058735
592.751086106
592.751113473
592.751141437
592.751169473
592.751196472
592.75122137
592.751243468
592.75126252
592.751278851
592.751293301
592.751306069
592.75131586
592.751322138
592.751324996
592.751323533
592.751317213
592.751306891
592.751293713
592.75127852
592.751261552
592.751242207
592.751219521
592.751193022
592.75116357
592.75113324
592.751104587
592.751079981
592.751060836
592.751046811
592.751035158
592.751020201
592.750994093
592.75095076
592.750887133
592.750803267
592.75070475
592.750602315
592.750506505
592.750425357
592.750366958
592.750327726
592.750306986
592.750302021
592.750309629
592.750335832
592.750390771
592.750477422
592.750576234
592.750664373
592.750729215
592.750770074
592.750794849
592.773298279
592.773306675
592.773305456
592.773306387
592.773315605
592.77333364
592.773358861
592.773388807
592.773419897
592.773449217
592.773474477
592.773495495
592.773514205
592.773532657
592.773551806
592.773571583
592.773591466
592.773611019
592.77363013
592.773649033
592.773668234
592.773688381
592.773709773
592.773730952
592.77375005
592.773765829
592.773776778
592.773782452
592.773783724
592.77378083
592.773774248
592.773764598
592.773751113
592.773732698
592.773708977
592.773681047
592.773651265
592.773622566
592.773597737
592.773578435
592.773564305
592.773552433
592.773536828
592.773509232
592.773463229
592.773395654
592.773306877
592.773202964
592.7730953
592.772995036
592.772910346
592.77284945
592.772809101
592.77278871
592.772783866
592.772791728
592.772819159
592.772876784
592.772966446
592.773066732
592.773155903
592.773221149
592.773261061
592.773283119
592.821587726
592.821595105
592.821592557
592.821591585
592.821598307
592.821612908
592.821634442
592.821660712
592.821687256
592.821710622
592.821727421
592.821738527
592.821746907
592.82175507
592.821764376
592.821775305
592.821787943
592.821802408
592.821818972
592.821838077
592.821860213
592.821885674
592.821914488
592.821945716
592.821977214
592.822006628
592.822031933
592.822051982
592.8220663
592.822075049
592.822079029
592.822078787
592.822073179
592.82206064
592.822040725
592.822014829
592.821985737
592.821956756
592.821930999
592.821910366
592.821894628
592.821880877
592.821862942
592.821832268
592.821782148
592.821709389
592.821614949
592.82150577
592.82139249
592.821287375
592.821198941
592.821135654
592.821093761
592.821072248
592.821066436
592.821074148
592.821102586
592.821162851
592.821255463
592.821357536
592.821448333
592.821514717
592.821554667
592.821575408
592.897158099
592.897166125
592.897164995
592.897163981
592.897169677
592.897182005
592.897199032
592.897222234
592.897245137
592.897262525
592.897270044
592.897271242
592.897270004
592.897269027
592.897270093
592.897274182
592.897281589
592.897292644
592.897307542
592.89732649
592.897349826
592.897377733
592.897410037
592.89744619
592.897484713
592.897523421
592.897559993
592.897592425
592.897619404
592.89764036
592.897655249
592.897663818
592.897666567
592.897662312
592.897648445
592.897626162
592.897598947
592.897570607
592.897544594
592.897523117
592.897506214
592.897491162
592.897471639
592.897438669
592.897385131
592.897308085
592.897209816
592.897098516
592.896979964
592.89686968
592.896776409
592.896709183
592.896663553
592.896638122
592.896629363
592.896635062
592.896662411
592.896724326
592.896819426
592.896923508
592.897016475
592.897084807
592.897125892
592.897146848
593.000445015
593.000451636
593.000451459
593.000449085
593.000453156
593.000465887
593.00048696
593.000508528
593.000527755
593.000537692
593.000536674
593.000530165
593.000521365
593.000513498
593.0005094
593.00050938
593.00051356
593.00052282
593.000536647
593.000554892
593.000577839
593.000605891
593.000639103
593.000677152
593.00071902
593.000763069
593.000807261
593.000849445
593.000887803
593.00092081
593.000947256
593.000966346
593.000977263
593.000980643
593.000975187
593.000959004
593.000935352
593.000909116
593.000884274
593.00086342
593.000846993
593.000832365
593.000812886
593.000779085
593.00072374
593.000644029
593.000539922
593.000417071
593.000292965
593.000178951
593.000080785
593.000008852
592.999958808
592.999929118
592.999917158
592.999920276
592.999945853
593.000008501
593.000104572
593.000209466
593.000304005
593.000373956
593.000415511
593.000435752
593.130168155
593.130169385
593.13016756
593.130159829
593.130156451
593.130175499
593.130212968
593.130233376
593.130247069
593.130250427
593.130244145
593.130233258
593.130221196
593.13021108
593.13020551
593.130204897
593.130209225
593.130218828
593.130232673
593.130250408
593.130272637
593.130300183
593.13033356
593.130372571
593.130416225
593.130463149
593.13051183
593.130560656
593.130607999
593.130651992
593.130690394
593.130721236
593.130742581
593.13075328
593.130755023
593.130746855
593.130728547
593.130705718
593.130683402
593.130664748
593.130650394
593.130637502
593.130618804
593.13058455
593.130528918
593.130450061
593.130333486
593.130181829
593.130052709
593.129939089
593.129836796
593.129758802
593.129702681
593.129667272
593.129650558
593.129650365
593.129673765
593.129735591
593.129831148
593.129936175
593.130032198
593.130103536
593.130144773
593.130162882
593.27234
593.272335454
593.272330005
593.272319594
593.272314639
593.272321384
593.272337514
593.272352757
593.272364729
593.272365081
593.272357353
593.272346699
593.272336715
593.272329881
593.272327805
593.272330484
593.272338387
593.272351164
593.272366771
593.272384974
593.272406816
593.272433648
593.272466364
593.272504951
593.272548524
593.272595954
593.272646147
593.272698099
593.272750684
593.272802651
593.272851837
593.272895011
593.272928385
593.272949238
593.272957997
593.272956916
593.272945932
593.27292802
593.272909551
593.272894539
593.272883342
593.272872507
593.27285418
593.272818406
593.272758359
593.272671283
593.272554648
593.272418616
593.27228713
593.272164084
593.272054692
593.271968755
593.271904138
593.271860903
593.271836976
593.271832135
593.271851938
593.271910958
593.272005886
593.272111874
593.272209055
593.27228048
593.272321153
593.272337922
593.407685678
593.407677826
593.407666471
593.407651449
593.407640679
593.407638673
593.407640337
593.407647733
593.407652612
593.40764468
593.407635343
593.407627875
593.407622786
593.407622114
593.407627157
593.407637856
593.407653784
593.407673089
593.407693646
593.407715156
593.407738665
593.40776575
593.407797767
593.407835364
593.407878294
593.407925685
593.407976404
593.40802974
593.4080854
593.408143069
593.408200995
593.408255642
593.40830224
593.40833644
593.408356018
593.408363255
593.408360722
593.408350249
593.408337152
593.408326493
593.408318791
593.408310038
593.408291251
593.408252135
593.408186914
593.408094154
593.407976299
593.407844639
593.407704917
593.407572322
593.407454006
593.407360094
593.407287707
593.407237738
593.407207426
593.407198114
593.407213738
593.407269595
593.407364347
593.407470537
593.407565343
593.407632455
593.407670119
593.407685225
593.509329103
593.50931523
593.509294794
593.509270187
593.509246729
593.509233287
593.509227343
593.509225931
593.50922119
593.509205638
593.509192099
593.509185018
593.509182921
593.509188014
593.509202683
593.509225799
593.509254536
593.50928601
593.509317969
593.509349477
593.50938084
593.509413359
593.50944882
593.509488771
593.509533695
593.509582828
593.509635156
593.50969084
593.509750555
593.509814018
593.509879284
593.509943462
593.510002421
593.510051314
593.510085884
593.510105269
593.510112393
593.510110974
593.510104932
593.510098817
593.510094159
593.510087486
593.510069227
593.510027852
593.509957546
593.509857773
593.509731459
593.509587377
593.509435235
593.509292043
593.509165465
593.509066518
593.508990008
593.508935141
593.508899473
593.508887002
593.508899585
593.50895321
593.509046607
593.509148906
593.509236758
593.509296166
593.509326475
593.509334605
593.563959128
593.563932967
593.563899252
593.563860249
593.563821245
593.563791887
593.563772363
593.563757837
593.563743474
593.563723324
593.563705625
593.563696122
593.56369506
593.563704729
593.563728186
593.563763084
593.563805701
593.563852537
593.563900882
593.56394877
593.563995319
593.564040957
593.5640871
593.564135172
593.564185678
593.564238339
593.564293524
593.564352986
593.564417937
593.564487239
593.564558658
593.564630119
593.564698665
593.564759618
593.5648079
593.564840626
593.564858873
593.564866359
593.564867859
593.564866766
593.564864502
593.564859232
593.564841636
593.564799077
593.564724211
593.564615012
593.564476903
593.564320872
593.564159177
593.564007066
593.563872787
593.563767455
593.563685864
593.563625537
593.563583812
593.563567609
593.563577892
593.563628893
593.563719733
593.563817812
593.563900886
593.563955448
593.563977386
593.563975309
593.583601335
593.583564241
593.583518588
593.583467146
593.583415628
593.583372967
593.583340685
593.583314393
593.58329119
593.583267466
593.583245467
593.583232402
593.583231025
593.583242379
593.583269064
593.583308909
593.583358691
593.583414982
593.583474896
593.583535928
593.583596461
593.583656014
593.583714756
593.583772746
593.583829898
593.58388681
593.583945492
593.584008381
593.584076617
593.584149124
593.584224478
593.584300848
593.584375482
593.584443835
593.584500869
593.584543185
593.584570865
593.584587127
593.584596164
593.584600403
593.584601099
593.584598184
593.584582774
593.584540213
593.584461542
593.584343979
593.58419679
593.584033038
593.583864854
593.583706389
593.583565914
593.583453097
593.583364648
593.583299016
593.583252697
593.583234442
593.583243306
593.583292409
593.583380565
593.583478635
593.583562754
593.583616892
593.583634886
593.583626072
593.58599228
593.585952084
593.585901895
593.58584526
593.585788789
593.585740844
593.585703433
593.585671557
593.585641861
593.585613477
593.58558847
593.58557309
593.585570445
593.585580661
593.585606044
593.585644837
593.585694186
593.585750833
593.585812025
593.58587541
593.585939444
593.586003393
593.586066689
593.586128522
593.586188476
593.586247466
593.586307824
593.58637176
593.586440279
593.586512999
593.58658931
593.58666745
593.58674443
593.586815728
593.586876454
593.586923202
593.586955809
593.586977159
593.586991135
593.586999901
593.587003654
593.587003946
593.586992726
593.586952741
593.586874442
593.586756241
593.586607995
593.586442203
593.586271752
593.586110783
593.585967175
593.585849132
593.585755039
593.585686674
593.585639454
593.58562073
593.585629688
593.585678514
593.585766351
593.585866957
593.585954775
593.586010472
593.586027909
593.586018427
593.585005008
593.584962967
593.584909852
593.584850001
593.584790464
593.584739365
593.584699151
593.584664541
593.584631545
593.584600794
593.584575089
593.58455855
593.584554511
593.584563182
593.584585988
593.584621883
593.58466853
593.584723031
593.584782819
593.584845693
593.584910326
593.584976023
593.585041813
593.585106316
593.585168807
593.585230111
593.585292262
593.585356974
593.58542523
593.585497316
593.5855735
593.585652148
593.58573017
593.585803006
593.585865862
593.585915438
593.58595158
593.585976957
593.585995068
593.586007839
593.586014791
593.586017425
593.586009573
593.585972868
593.58589587
593.585777729
593.585628661
593.585461151
593.585289733
593.58512846
593.584984435
593.584864386
593.58476809
593.584698506
593.584652088
593.584634403
593.58464381
593.584692483
593.584779964
593.584881625
593.584970365
593.585025314
593.585041528
593.585031697
593.579506568
593.579461485
593.579404124
593.579339563
593.579275042
593.579218129
593.579171895
593.579131493
593.579092175
593.579055502
593.579026414
593.579007035
593.578999513
593.579004888
593.579023161
593.579054458
593.579097089
593.579148657
593.579206839
593.57926971
593.579336203
593.579405983
593.579477441
593.579548206
593.579616836
593.579683658
593.579750139
593.579817372
593.579886484
593.579958606
593.580035004
593.580114518
593.580194315
593.58026996
593.580336528
593.580390372
593.580431449
593.580462416
593.580486305
593.580504638
593.580516451
593.580522282
593.580517806
593.580484546
593.580408513
593.580289848
593.580138922
593.579968594
593.579795657
593.579633986
593.5794893
593.579367253
593.579269168
593.579199143
593.579154713
593.579139254
593.579150046
593.579199127
593.579285994
593.579388523
593.579478252
593.579531824
593.579545762
593.579534777
593.567358222
593.567307413
593.567243563
593.567172111
593.567099755
593.567033572
593.56697733
593.566927629
593.566879636
593.56683483
593.566798777
593.56677476
593.566762509
593.566763558
593.566776625
593.566803183
593.566842557
593.566892954
593.566952031
593.567017971
593.567090249
593.567168477
593.567250042
593.567331304
593.567410101
593.567486438
593.567561171
593.567633783
593.567705963
593.56778004
593.567858288
593.567940205
593.568023427
593.568103766
593.568175926
593.568235249
593.568281931
593.568318757
593.568348684
593.568372924
593.568389489
593.568397335
593.568393389
593.568360346
593.568282718
593.568161393
593.568006914
593.567832667
593.567656218
593.567491342
593.567345119
593.567222637
593.567125028
593.56705487
593.567011202
593.56699744
593.56700989
593.567060044
593.56714701
593.5672501
593.567340098
593.567392461
593.567404342
593.567390655
593.547776711
593.547719822
593.547648963
593.547569689
593.547488296
593.547411803
593.547344358
593.547282461
593.54721913
593.547164615
593.547120218
593.54708797
593.54706986
593.547066128
593.54707418
593.547095959
593.547132665
593.54718289
593.547244166
593.547315808
593.54740069
593.547490512
593.547583128
593.547675826
593.547766717
593.5478555
593.547941837
593.548022215
593.548099558
593.548177459
593.548259282
593.548345305
593.548433359
593.548519273
593.548597728
593.548663308
593.54871576
593.548757863
593.548792779
593.548821469
593.54884078
593.548848754
593.548843373
593.548808847
593.548729395
593.548605374
593.5484472
593.548268479
593.548086178
593.547914671
593.547765366
593.547642555
593.547545985
593.547475306
593.547431031
593.547418116
593.547432205
593.547483969
593.547572013
593.547676578
593.547767687
593.547819861
593.547830401
593.547813821
593.520624648
593.520562289
593.520484985
593.520398282
593.520308777
593.520223919
593.520147081
593.520071491
593.519987703
593.519923125
593.519871139
593.519830485
593.519802532
593.519794386
593.519797003
593.519812823
593.519845389
593.519893903
593.519956563
593.520035848
593.520138674
593.520240465
593.520342431
593.52044583
593.520550036
593.520652589
593.520750537
593.520839328
593.520923283
593.521005911
593.521091993
593.521182464
593.521274489
593.521363458
593.521445346
593.521515494
593.521573316
593.521619724
593.521657948
593.521688849
593.521708842
593.52171606
593.5217099
593.521675928
593.521597698
593.52147365
593.521312282
593.521128765
593.520940535
593.520763619
593.520610987
593.520487211
593.520392349
593.520322423
593.520278044
593.520265973
593.520282004
593.52033589
593.520425626
593.520532511
593.520625501
593.520677455