/*--------------------------------*- C++ -*----------------------------------*\
  =========                 |
  \\      /  F ield         | OpenFOAM: The Open Source CFD Toolbox
   \\    /   O peration     | Website:  https://openfoam.org
    \\  /    A nd           | Version:  6
     \\/     M anipulation  |
\*---------------------------------------------------------------------------*/
FoamFile
{
    version     2.0;
    format      ascii;
    class       volVectorField;
    location    "1e-08";
    object      U;
}
// * * * * * * * * * * * * * * * * * * * * * * * * * * * * * * * * * * * * * //

dimensions      [0 1 -1 0 0 0 0];

internalField   nonuniform List<vector> 
12288
(
(-87.6807857822 0 -0.00154421376722)
(-87.6807829029 0 -0.0015433007193)
(-87.6807790599 0 -0.00154043789171)
(-87.6807749872 0 -0.00153552301984)
(-87.6807718568 0 -0.00152899415953)
(-87.6807708478 0 -0.00152126946625)
(-87.6807716375 0 -0.00151292981629)
(-87.6807729642 0 -0.00150424431887)
(-87.6807734673 0 -0.001495084535)
(-87.6807721332 0 -0.00148505627488)
(-87.6807685172 0 -0.0014737737804)
(-87.6807630219 0 -0.00146106642042)
(-87.6807567157 0 -0.00144702190607)
(-87.6807506208 0 -0.0014319230341)
(-87.6807452007 0 -0.00141612105634)
(-87.6807403817 0 -0.00139991317929)
(-87.6807357998 0 -0.00138345975121)
(-87.6807310015 0 -0.00136674589587)
(-87.6807255528 0 -0.00134958606621)
(-87.6807192592 0 -0.00133174108825)
(-87.6807123557 0 -0.00131307194526)
(-87.6807052246 0 -0.00129358407227)
(-87.6806982144 0 -0.00127351121443)
(-87.6806916423 0 -0.00125327950353)
(-87.6806855823 0 -0.00123317747189)
(-87.6806795391 0 -0.00121325284248)
(-87.6806730611 0 -0.00119342498021)
(-87.6806663643 0 -0.00117360894053)
(-87.6806599264 0 -0.00115378180717)
(-87.6806538791 0 -0.00113398066288)
(-87.6806480138 0 -0.00111419249945)
(-87.6806421885 0 -0.00109427862611)
(-87.6806365604 0 -0.00107406766132)
(-87.6806317111 0 -0.00105345746204)
(-87.6806282142 0 -0.00103256836704)
(-87.6806261497 0 -0.00101173476476)
(-87.6806248844 0 -0.000991347490776)
(-87.6806234635 0 -0.000971635345801)
(-87.6806211608 0 -0.000952567154945)
(-87.6806176377 0 -0.000933901776701)
(-87.6806131612 0 -0.00091519911506)
(-87.6806084997 0 -0.000895893900499)
(-87.6806052578 0 -0.000875308639908)
(-87.6806056235 0 -0.000852985566767)
(-87.6806115037 0 -0.000829336839626)
(-87.680623434 0 -0.000806304216929)
(-87.6806402801 0 -0.000786964638328)
(-87.6806597638 0 -0.000774268096763)
(-87.6806784223 0 -0.000770037405996)
(-87.6806933593 0 -0.000781546527547)
(-87.6806972348 0 -0.000818285337667)
(-87.6807000933 0 -0.000885718274522)
(-87.6807000153 0 -0.000978725499925)
(-87.6806970479 0 -0.00108669520743)
(-87.6806946028 0 -0.00119614366109)
(-87.6806944417 0 -0.00129401312681)
(-87.6806978409 0 -0.00137186814601)
(-87.6807071098 0 -0.00142895809395)
(-87.680725411 0 -0.00147024789853)
(-87.6807500565 0 -0.00149919716446)
(-87.6807709152 0 -0.00151859923467)
(-87.6807828194 0 -0.00153157348563)
(-87.6807873063 0 -0.00153959518061)
(-87.6807875352 0 -0.00154337000255)
(-87.6807920109 0 -0.00164607278999)
(-87.6807818578 0 -0.00164653769057)
(-87.6807719733 0 -0.00164493303071)
(-87.6807638699 0 -0.00164131590327)
(-87.6807583081 0 -0.00163602557815)
(-87.6807556217 0 -0.00162917327842)
(-87.6807554967 0 -0.00162107486492)
(-87.6807562973 0 -0.00161213052173)
(-87.6807559738 0 -0.00160255547378)
(-87.6807530799 0 -0.00159226518741)
(-87.6807471505 0 -0.00158109068109)
(-87.6807391999 0 -0.0015689465267)
(-87.6807310482 0 -0.0015557989706)
(-87.6807239914 0 -0.00154170273991)
(-87.6807183301 0 -0.00152680392739)
(-87.6807136988 0 -0.00151128855333)
(-87.6807094615 0 -0.00149531175642)
(-87.6807049323 0 -0.00147893053435)
(-87.6806995473 0 -0.00146207916159)
(-87.6806932316 0 -0.00144461781845)
(-87.680686352 0 -0.00142642368658)
(-87.6806793541 0 -0.00140747652694)
(-87.6806727762 0 -0.00138794834407)
(-87.6806670286 0 -0.0013681100764)
(-87.6806618721 0 -0.00134816775565)
(-87.6806565386 0 -0.00132824771753)
(-87.6806506196 0 -0.00130839715897)
(-87.680644584 0 -0.00128855956225)
(-87.6806390523 0 -0.00126863143324)
(-87.6806340206 0 -0.00124856809038)
(-87.6806288787 0 -0.00122836064631)
(-87.6806231368 0 -0.0012079514596)
(-87.6806169246 0 -0.00118730057373)
(-87.680611304 0 -0.00116639938183)
(-87.6806077299 0 -0.00114534136692)
(-87.6806069122 0 -0.00112435969039)
(-87.6806080163 0 -0.00110367464201)
(-87.6806092408 0 -0.00108329037423)
(-87.6806088197 0 -0.00106301270819)
(-87.6806055828 0 -0.00104254249037)
(-87.6805991113 0 -0.00102153250108)
(-87.6805895672 0 -0.000999733780244)
(-87.6805780457 0 -0.000977014375466)
(-87.6805679299 0 -0.000953392744039)
(-87.6805647793 0 -0.000929695446517)
(-87.6805723058 0 -0.00090795419605)
(-87.6805903165 0 -0.000890499548945)
(-87.6806162242 0 -0.000879460371034)
(-87.680645455 0 -0.000876518203044)
(-87.6806726866 0 -0.000889550016393)
(-87.6806872356 0 -0.000929307070681)
(-87.6806999198 0 -0.000998158587901)
(-87.6807059402 0 -0.00109312730401)
(-87.6807086773 0 -0.00120349032157)
(-87.6807101239 0 -0.00131494070967)
(-87.6807128554 0 -0.00141391399289)
(-87.6807183232 0 -0.00149150805369)
(-87.6807297453 0 -0.00154701063767)
(-87.6807515434 0 -0.00158530640452)
(-87.6807788524 0 -0.00160931137699)
(-87.680798509 0 -0.00162386277647)
(-87.6808060328 0 -0.0016334490566)
(-87.680805487 0 -0.00163951712288)
(-87.6808004219 0 -0.00164376070302)
(-87.6808025505 0 -0.00176984234396)
(-87.680782194 0 -0.00176959538932)
(-87.6807621103 0 -0.00176739354404)
(-87.6807448038 0 -0.00176309369431)
(-87.6807313385 0 -0.00175711285898)
(-87.6807217761 0 -0.00174967546258)
(-87.6807155453 0 -0.00174082452456)
(-87.6807116733 0 -0.00173078126207)
(-87.6807082861 0 -0.00171996294541)
(-87.6807027913 0 -0.00170850553201)
(-87.6806934724 0 -0.00169643571841)
(-87.6806813488 0 -0.0016838001723)
(-87.6806690343 0 -0.00167040955965)
(-87.6806582793 0 -0.00165613959009)
(-87.6806494435 0 -0.00164103449029)
(-87.6806421588 0 -0.00162522931946)
(-87.6806357836 0 -0.00160886809581)
(-87.6806295043 0 -0.00159203288672)
(-87.6806224882 0 -0.00157473320833)
(-87.680614476 0 -0.00155687800423)
(-87.6806058611 0 -0.00153833066264)
(-87.6805972067 0 -0.00151907394795)
(-87.6805891916 0 -0.00149927025028)
(-87.6805823475 0 -0.00147909997883)
(-87.6805764187 0 -0.00145872450982)
(-87.6805705552 0 -0.00143829290991)
(-87.680564239 0 -0.00141787860308)
(-87.6805578135 0 -0.00139741262658)
(-87.680551848 0 -0.00137674857491)
(-87.6805463656 0 -0.00135582063461)
(-87.6805408314 0 -0.00133465512971)
(-87.6805348329 0 -0.00131328657867)
(-87.6805286301 0 -0.00129178126308)
(-87.6805234884 0 -0.00127018905731)
(-87.6805209586 0 -0.0012485633727)
(-87.680521389 0 -0.0012269913196)
(-87.680523209 0 -0.00120546442624)
(-87.6805238911 0 -0.0011838168618)
(-87.6805214488 0 -0.00116183565204)
(-87.6805151014 0 -0.00113931581548)
(-87.6805051759 0 -0.00111610265094)
(-87.6804926131 0 -0.00109214236709)
(-87.6804789897 0 -0.00106768082956)
(-87.6804683099 0 -0.00104312032259)
(-87.6804679613 0 -0.0010190844274)
(-87.6804826814 0 -0.000997756465965)
(-87.680510904 0 -0.000980826207462)
(-87.6805492081 0 -0.000969697721139)
(-87.6805931005 0 -0.000966737469924)
(-87.680637306 0 -0.000979884552865)
(-87.6806695363 0 -0.00102288811721)
(-87.6806905639 0 -0.00109628007713)
(-87.6807024766 0 -0.00119834924837)
(-87.6807087825 0 -0.00131795337329)
(-87.68071131 0 -0.00143870906461)
(-87.6807146799 0 -0.00154512836986)
(-87.6807206094 0 -0.00162726665526)
(-87.6807338058 0 -0.00168482005515)
(-87.6807615716 0 -0.00172339230496)
(-87.6807972176 0 -0.0017452376313)
(-87.6808226698 0 -0.00175712099521)
(-87.680831452 0 -0.00176384468211)
(-87.6808288283 0 -0.00176693564006)
(-87.6808192239 0 -0.00176890283449)
(-87.6807898226 0 -0.00186234660698)
(-87.6807609984 0 -0.00186052237958)
(-87.6807319448 0 -0.00185709771506)
(-87.6807064093 0 -0.00185184027481)
(-87.6806861156 0 -0.0018449255862)
(-87.6806707311 0 -0.00183662834085)
(-87.6806594411 0 -0.00182709569115)
(-87.6806510844 0 -0.00181642784356)
(-87.6806439987 0 -0.00180476517657)
(-87.6806355905 0 -0.00179226163855)
(-87.6806235903 0 -0.00177908355148)
(-87.680608287 0 -0.00176554216633)
(-87.6805922894 0 -0.00175151347073)
(-87.6805777387 0 -0.00173676804437)
(-87.6805653356 0 -0.0017212177186)
(-87.6805548691 0 -0.00170494843143)
(-87.6805457551 0 -0.00168807495861)
(-87.6805371075 0 -0.00167065068705)
(-87.6805278258 0 -0.00165270781145)
(-87.6805175321 0 -0.00163420120935)
(-87.6805066183 0 -0.00161496562923)
(-87.6804957496 0 -0.0015949631083)
(-87.6804856378 0 -0.00157443147694)
(-87.6804768955 0 -0.00155355818631)
(-87.6804694058 0 -0.00153245353405)
(-87.6804623206 0 -0.0015112203614)
(-87.6804549678 0 -0.0014898888638)
(-87.6804474738 0 -0.00146836442391)
(-87.6804403473 0 -0.00144649110094)
(-87.6804337053 0 -0.0014242166004)
(-87.6804272195 0 -0.00140158967777)
(-87.6804206032 0 -0.00137869534641)
(-87.6804142192 0 -0.00135562751393)
(-87.680409305 0 -0.00133246870039)
(-87.6804072117 0 -0.00130928106244)
(-87.6804078771 0 -0.00128611628295)
(-87.6804092829 0 -0.00126292528888)
(-87.6804085664 0 -0.00123956257832)
(-87.6804039052 0 -0.00121584252433)
(-87.6803949567 0 -0.0011915999064)
(-87.6803821106 0 -0.00116660142023)
(-87.6803670287 0 -0.00114057465084)
(-87.6803525117 0 -0.00111393599588)
(-87.6803434015 0 -0.00108726746962)
(-87.6803477279 0 -0.00106142130159)
(-87.6803694666 0 -0.00103888675734)
(-87.6804071186 0 -0.00102084900986)
(-87.6804571674 0 -0.00100881188635)
(-87.6805139489 0 -0.00100539041151)
(-87.6805709631 0 -0.001018510294)
(-87.6806148671 0 -0.00106464602864)
(-87.6806418061 0 -0.00114492974464)
(-87.6806585255 0 -0.00125703285938)
(-87.6806674023 0 -0.00138935332493)
(-87.6806715369 0 -0.00152330341417)
(-87.6806767904 0 -0.00164066183047)
(-87.6806853661 0 -0.00172999829441)
(-87.6807036011 0 -0.00179166629401)
(-87.680741086 0 -0.00183142490777)
(-87.6807872598 0 -0.00185154095203)
(-87.6808199715 0 -0.00186087611035)
(-87.6808310783 0 -0.00186429612613)
(-87.6808273847 0 -0.00186435755631)
(-87.6808134314 0 -0.00186339351865)
(-87.6807832101 0 -0.00183661950552)
(-87.6807469527 0 -0.00183335130633)
(-87.6807095661 0 -0.00182888513913)
(-87.6806762298 0 -0.00182279839784)
(-87.6806494623 0 -0.0018151552538)
(-87.6806289471 0 -0.001806271593)
(-87.680613357 0 -0.00179634032077)
(-87.680601254 0 -0.0017853479727)
(-87.6805907471 0 -0.00177331340525)
(-87.6805795855 0 -0.00176017978003)
(-87.680565429 0 -0.0017461109959)
(-87.68054793 0 -0.00173142196287)
(-87.6805290792 0 -0.00171627955479)
(-87.6805112815 0 -0.00170054591522)
(-87.6804956447 0 -0.00168416698506)
(-87.6804822341 0 -0.0016672063189)
(-87.680470541 0 -0.00164977559165)
(-87.6804596391 0 -0.00163187623629)
(-87.680448387 0 -0.00161339404368)
(-87.6804359593 0 -0.00159428839867)
(-87.6804228499 0 -0.00157438674038)
(-87.6804100299 0 -0.00155363235597)
(-87.6803980871 0 -0.00153234485724)
(-87.680387478 0 -0.00151085811948)
(-87.6803783901 0 -0.00148922715233)
(-87.6803700835 0 -0.00146747460032)
(-87.680361727 0 -0.00144557422039)
(-87.6803532193 0 -0.00142340516697)
(-87.6803449853 0 -0.00140080936414)
(-87.6803371954 0 -0.00137775774297)
(-87.680329679 0 -0.00135431637693)
(-87.6803222118 0 -0.00133058231283)
(-87.6803151549 0 -0.00130662500072)
(-87.6803095272 0 -0.00128253443306)
(-87.6803065478 0 -0.00125829781215)
(-87.6803059002 0 -0.00123390470466)
(-87.6803054021 0 -0.00120929619999)
(-87.6803021945 0 -0.00118439626275)
(-87.6802948874 0 -0.00115903717796)
(-87.6802827464 0 -0.00113312050071)
(-87.6802660992 0 -0.00110615836641)
(-87.680247873 0 -0.00107770434039)
(-87.6802320872 0 -0.00104825894123)
(-87.6802241878 0 -0.00101820075268)
(-87.680232326 0 -0.000988797358419)
(-87.6802599359 0 -0.00096264180384)
(-87.6803062589 0 -0.000941541644184)
(-87.680367108 0 -0.000927898089493)
(-87.6804350214 0 -0.000924918884229)
(-87.6805018263 0 -0.000940225167898)
(-87.6805530841 0 -0.000990608981603)
(-87.6805819266 0 -0.00107826447792)
(-87.6806012482 0 -0.00120060526266)
(-87.6806119215 0 -0.00134544879207)
(-87.6806179695 0 -0.00149205797151)
(-87.6806268393 0 -0.00162003518566)
(-87.6806413621 0 -0.00171658739237)
(-87.6806674105 0 -0.00178243589283)
(-87.6807152403 0 -0.0018232625954)
(-87.680771914 0 -0.00184182023095)
(-87.6808133595 0 -0.00184827899581)
(-87.6808298483 0 -0.00184770298326)
(-87.6808271467 0 -0.00184399824008)
(-87.6808117402 0 -0.00183980257827)
(-87.6807697448 0 -0.00116490039893)
(-87.6807291685 0 -0.00115957009466)
(-87.6806860438 0 -0.00115329718647)
(-87.6806470018 0 -0.00114567771499)
(-87.6806153188 0 -0.00113677477929)
(-87.6805905348 0 -0.00112686259366)
(-87.6805710974 0 -0.00111609084239)
(-87.6805552526 0 -0.00110440297245)
(-87.6805409693 0 -0.00109168894899)
(-87.6805260778 0 -0.00107783795133)
(-87.6805086974 0 -0.00106284802784)
(-87.6804885265 0 -0.00104694975984)
(-87.680467251 0 -0.00103039073727)
(-87.6804470287 0 -0.00101325317872)
(-87.6804290218 0 -0.000995544259174)
(-87.6804133943 0 -0.000977319986417)
(-87.6803996684 0 -0.000958656261154)
(-87.6803868729 0 -0.000939503623551)
(-87.6803737276 0 -0.000919690096434)
(-87.6803594485 0 -0.000899041728214)
(-87.6803444604 0 -0.000877510907336)
(-87.6803298741 0 -0.000855052448255)
(-87.6803163957 0 -0.000831930340167)
(-87.68030432 0 -0.000808622564137)
(-87.6802937098 0 -0.000785270197088)
(-87.6802839506 0 -0.000761813096739)
(-87.6802742121 0 -0.000738166518894)
(-87.6802641845 0 -0.000714241814343)
(-87.6802542719 0 -0.000689869454962)
(-87.680244724 0 -0.000665024422404)
(-87.6802354648 0 -0.000639776794903)
(-87.6802262741 0 -0.000614183377869)
(-87.6802175132 0 -0.000588229475542)
(-87.6802101828 0 -0.00056197391404)
(-87.680205559 0 -0.000535376666091)
(-87.6802033598 0 -0.000508435399527)
(-87.6802014578 0 -0.000481125986665)
(-87.6801970467 0 -0.000453407618493)
(-87.6801888364 0 -0.000425142302083)
(-87.680175369 0 -0.000396213977034)
(-87.6801569257 0 -0.000366076110547)
(-87.6801375334 0 -0.000334367530454)
(-87.6801217701 0 -0.00030176703605)
(-87.6801152359 0 -0.000268705040346)
(-87.6801261951 0 -0.000236851592445)
(-87.6801582164 0 -0.000209108248483)
(-87.6802106219 0 -0.000187485663171)
(-87.6802786919 0 -0.000173996771981)
(-87.6803543601 0 -0.000171697291276)
(-87.6804288122 0 -0.000188973925284)
(-87.6804866399 0 -0.000245284415489)
(-87.680520345 0 -0.00034319690288)
(-87.6805428079 0 -0.000479762022655)
(-87.6805543713 0 -0.00064104593848)
(-87.6805601123 0 -0.000803715734033)
(-87.6805686538 0 -0.000945126299971)
(-87.6805832475 0 -0.00105109878882)
(-87.6806125207 0 -0.00112293189585)
(-87.680669011 0 -0.00116595797256)
(-87.6807365675 0 -0.00118385280514)
(-87.6807886855 0 -0.00118816180374)
(-87.6808131918 0 -0.00118442817514)
(-87.680813933 0 -0.00117778376299)
(-87.6807997754 0 -0.00117063688087)
(-87.6807454138 0 0.00273341451152)
(-87.6807015563 0 0.00274078881513)
(-87.6806540231 0 0.00274900459529)
(-87.6806107321 0 0.00275844466722)
(-87.6805753437 0 0.00276897515065)
(-87.6805472579 0 0.00278051664158)
(-87.6805247129 0 0.00279290354377)
(-87.6805058176 0 0.00280613611215)
(-87.6804884587 0 0.00282031480835)
(-87.6804704389 0 0.00283557441712)
(-87.68045003 0 0.00285204765663)
(-87.6804271296 0 0.00286964317763)
(-87.6804034131 0 0.00288813994189)
(-87.6803808183 0 0.00290741895824)
(-87.6803604121 0 0.00292740528915)
(-87.6803424619 0 0.00294795406367)
(-87.6803266461 0 0.00296905757928)
(-87.6803119251 0 0.0029907829942)
(-87.6802969306 0 0.00301330163721)
(-87.6802809303 0 0.00303674195053)
(-87.6802642612 0 0.00306113923898)
(-87.6802479137 0 0.00308653598768)
(-87.6802327081 0 0.00311263350958)
(-87.6802189785 0 0.00313889319114)
(-87.6802066352 0 0.00316509913747)
(-87.6801950588 0 0.00319131919629)
(-87.6801835065 0 0.00321767465011)
(-87.6801715973 0 0.00324423477585)
(-87.6801596867 0 0.00327117264475)
(-87.6801481678 0 0.00329855460082)
(-87.6801371797 0 0.0033263766516)
(-87.6801265715 0 0.00335463115458)
(-87.6801166473 0 0.003383352474)
(-87.6801082829 0 0.00341246446806)
(-87.6801027223 0 0.00344202379456)
(-87.6800995857 0 0.00347205579118)
(-87.6800968042 0 0.00350262444425)
(-87.6800917738 0 0.00353379189817)
(-87.680082967 0 0.00356572939845)
(-87.680068172 0 0.00359860971108)
(-87.6800478988 0 0.00363284896772)
(-87.6800269992 0 0.00366846957264)
(-87.6800096336 0 0.00370469960455)
(-87.6800014708 0 0.00374106337676)
(-87.6800123244 0 0.00377581116498)
(-87.6800472966 0 0.00380544804046)
(-87.6801057241 0 0.0038278314052)
(-87.6801825605 0 0.00384111722561)
(-87.680268628 0 0.00384238541021)
(-87.6803536828 0 0.00382231949745)
(-87.6804203215 0 0.00375893896354)
(-87.6804602211 0 0.00364931306714)
(-87.6804856867 0 0.00349697860577)
(-87.680498613 0 0.00331730849696)
(-87.6805047644 0 0.00313583506161)
(-87.6805136299 0 0.00297766523327)
(-87.6805277471 0 0.00285863041528)
(-87.6805577647 0 0.00277731410847)
(-87.6806194731 0 0.00272790138813)
(-87.6806952895 0 0.00270717354408)
(-87.6807557111 0 0.00270196945081)
(-87.6807867151 0 0.0027067789123)
(-87.6807904197 0 0.00271553574138)
(-87.6807767149 0 0.00272531146891)
(-87.6807288247 0 0.0175001330922)
(-87.6806826475 0 0.0175087306492)
(-87.6806313725 0 0.0175183145165)
(-87.6805839449 0 0.0175292969679)
(-87.6805442394 0 0.0175415083081)
(-87.680511872 0 0.0175547397594)
(-87.680485348 0 0.017568768802)
(-87.6804627374 0 0.0175835108192)
(-87.680441741 0 0.0175990045554)
(-87.6804200159 0 0.0176154579804)
(-87.6803958538 0 0.017633088436)
(-87.6803695275 0 0.017651961495)
(-87.680342783 0 0.0176720715374)
(-87.6803172767 0 0.0176933054153)
(-87.6802941285 0 0.0177154821024)
(-87.6802737216 0 0.0177384807591)
(-87.6802555465 0 0.0177622261447)
(-87.6802385087 0 0.0177867485911)
(-87.6802215076 0 0.0178122213912)
(-87.6802038014 0 0.0178387454244)
(-87.6801854222 0 0.0178663694956)
(-87.6801671848 0 0.0178950202339)
(-87.6801501957 0 0.0179243418746)
(-87.6801349827 0 0.0179538509952)
(-87.6801212384 0 0.0179832748408)
(-87.6801082532 0 0.0180126466485)
(-87.6800954688 0 0.0180421472856)
(-87.6800825768 0 0.0180718970127)
(-87.6800698274 0 0.0181020828681)
(-87.6800575288 0 0.0181327919035)
(-87.6800457983 0 0.0181640592336)
(-87.6800344582 0 0.0181959255489)
(-87.6800237568 0 0.018228482399)
(-87.6800144558 0 0.0182616867326)
(-87.68000776 0 0.0182956169366)
(-87.6800033406 0 0.0183302760422)
(-87.6799992988 0 0.0183656152779)
(-87.6799926826 0 0.0184015463388)
(-87.679981149 0 0.0184381936682)
(-87.6799629529 0 0.0184756436564)
(-87.6799396324 0 0.0185140890743)
(-87.6799155419 0 0.0185531825123)
(-87.6798947861 0 0.018592482291)
(-87.67988574 0 0.0186319160598)
(-87.6799002474 0 0.0186692519751)
(-87.6799419719 0 0.0187006372523)
(-87.6800095542 0 0.0187240616908)
(-87.6800973971 0 0.0187373951672)
(-87.6801952371 0 0.0187375586045)
(-87.6802915256 0 0.0187142947546)
(-87.6803668863 0 0.0186433630117)
(-87.6804117188 0 0.0185216349676)
(-87.6804400372 0 0.0183533290591)
(-87.680454858 0 0.0181549955657)
(-87.6804632764 0 0.0179545206184)
(-87.6804737839 0 0.0177794171646)
(-87.6804887421 0 0.0176470059847)
(-87.6805196219 0 0.0175561085466)
(-87.6805841869 0 0.0174994702369)
(-87.6806657461 0 0.017474567638)
(-87.6807319048 0 0.0174668837539)
(-87.6807672463 0 0.0174708940665)
(-87.6807731706 0 0.017480357884)
(-87.6807601285 0 0.0174909799753)
(-87.6807283737 0 0.0563323975075)
(-87.6806793037 0 0.0563409487118)
(-87.6806245905 0 0.0563509532882)
(-87.6805739594 0 0.0563625825009)
(-87.6805314601 0 0.0563760190548)
(-87.6804964331 0 0.0563908233376)
(-87.6804671965 0 0.0564063958008)
(-87.6804417865 0 0.0564225885178)
(-87.6804176008 0 0.056439375801)
(-87.6803919386 0 0.0564568635784)
(-87.6803632236 0 0.0564752906027)
(-87.6803321296 0 0.0564947622908)
(-87.6803008287 0 0.0565154829855)
(-87.6802712371 0 0.056537438649)
(-87.6802444941 0 0.0565603445021)
(-87.6802210285 0 0.0565842184613)
(-87.6802001986 0 0.0566090881926)
(-87.6801805698 0 0.056634874269)
(-87.6801610988 0 0.0566617227703)
(-87.6801412322 0 0.0566899337243)
(-87.6801208728 0 0.05671957666)
(-87.6801007335 0 0.0567503867036)
(-87.6800821272 0 0.0567820166593)
(-87.6800657125 0 0.0568140483235)
(-87.6800510304 0 0.0568461909057)
(-87.6800371465 0 0.0568784385494)
(-87.6800234285 0 0.0569109995626)
(-87.6800095807 0 0.0569440552961)
(-87.6799957914 0 0.056977822111)
(-87.6799822355 0 0.0570123804039)
(-87.6799689366 0 0.0570477600468)
(-87.6799557099 0 0.0570840428729)
(-87.6799428678 0 0.0571213700314)
(-87.6799312213 0 0.057159643648)
(-87.6799221808 0 0.0571988340845)
(-87.6799157422 0 0.0572387473697)
(-87.6799100038 0 0.0572791105313)
(-87.6799014887 0 0.0573197126269)
(-87.6798877672 0 0.0573606247065)
(-87.6798678887 0 0.0574018115382)
(-87.6798434287 0 0.0574433378987)
(-87.6798181564 0 0.0574851327693)
(-87.6797968833 0 0.0575271414211)
(-87.6797904112 0 0.0575694516938)
(-87.6798111016 0 0.0576091247396)
(-87.6798606938 0 0.0576427559858)
(-87.6799376706 0 0.05766823713)
(-87.6800358415 0 0.0576831495252)
(-87.6801441455 0 0.0576839107959)
(-87.680250246 0 0.0576589672265)
(-87.6803332853 0 0.0575820837654)
(-87.6803825132 0 0.0574502311114)
(-87.6804140769 0 0.0572680785477)
(-87.6804304444 0 0.0570530681037)
(-87.6804402994 0 0.0568356634694)
(-87.680452331 0 0.0566458515503)
(-87.6804697653 0 0.0565022091526)
(-87.6805041194 0 0.0564036066853)
(-87.6805735872 0 0.0563416388606)
(-87.6806617007 0 0.0563134336172)
(-87.6807333059 0 0.0563038131998)
(-87.6807710321 0 0.0563062603006)
(-87.6807763717 0 0.0563147593718)
(-87.6807616422 0 0.0563240987259)
(-87.6807328242 0 0.128045326599)
(-87.6806785121 0 0.128050466411)
(-87.680618811 0 0.128057221196)
(-87.6805635691 0 0.128065610661)
(-87.6805174232 0 0.128076187349)
(-87.6804800161 0 0.128088819593)
(-87.6804490643 0 0.128102764434)
(-87.6804221566 0 0.128117823075)
(-87.6803962954 0 0.128133982601)
(-87.6803683237 0 0.128151219064)
(-87.680336418 0 0.128169550866)
(-87.6803013672 0 0.128188929886)
(-87.6802658646 0 0.128209437613)
(-87.6802323588 0 0.128231189352)
(-87.6802019945 0 0.128253909968)
(-87.6801751322 0 0.128277491081)
(-87.6801512996 0 0.128302128658)
(-87.6801289558 0 0.12832785532)
(-87.6801065778 0 0.128354735987)
(-87.6800838089 0 0.128383174425)
(-87.6800609852 0 0.128413525525)
(-87.6800386159 0 0.128445444876)
(-87.6800177603 0 0.128478367785)
(-87.6799993276 0 0.128511988825)
(-87.6799828724 0 0.128546056611)
(-87.6799671543 0 0.128580517552)
(-87.6799513523 0 0.128615607046)
(-87.6799351215 0 0.128651559697)
(-87.679918814 0 0.128688705921)
(-87.67990263 0 0.128727138831)
(-87.6798865817 0 0.128766861872)
(-87.6798705159 0 0.128807942604)
(-87.6798549213 0 0.128850485562)
(-87.6798408723 0 0.128894240862)
(-87.6798301454 0 0.12893899385)
(-87.6798226618 0 0.128984298039)
(-87.6798162702 0 0.129029828329)
(-87.6798070527 0 0.12907537589)
(-87.6797926331 0 0.129120968087)
(-87.6797726571 0 0.129166703578)
(-87.6797485854 0 0.129212884062)
(-87.6797236421 0 0.129259535782)
(-87.6797032476 0 0.129306824119)
(-87.679699646 0 0.129354750966)
(-87.6797244998 0 0.129399882752)
(-87.6797795462 0 0.129439281552)
(-87.6798637876 0 0.129470286966)
(-87.6799705474 0 0.129490143173)
(-87.6800877899 0 0.129494519193)
(-87.6802024606 0 0.129470737167)
(-87.6802928392 0 0.129390861715)
(-87.6803465092 0 0.12925152288)
(-87.6803824061 0 0.129057753412)
(-87.6804008353 0 0.128827904916)
(-87.6804113546 0 0.128595074445)
(-87.6804249842 0 0.128391738668)
(-87.6804457697 0 0.128237776027)
(-87.6804850329 0 0.128131954751)
(-87.6805621782 0 0.128065609894)
(-87.6806592621 0 0.1280350324)
(-87.6807387189 0 0.128024444183)
(-87.6807806425 0 0.128025782167)
(-87.6807863717 0 0.12803303951)
(-87.6807698296 0 0.128040251235)
(-87.6806904441 0 0.223459398394)
(-87.6806321017 0 0.223458038264)
(-87.6805681097 0 0.2234573505)
(-87.6805083888 0 0.223458060514)
(-87.6804577846 0 0.223460315733)
(-87.6804168441 0 0.223464247749)
(-87.6803831399 0 0.223469759509)
(-87.680353577 0 0.223476872649)
(-87.6803249579 0 0.223485760985)
(-87.6802940842 0 0.223496602925)
(-87.6802589201 0 0.223509417484)
(-87.6802201412 0 0.223524118308)
(-87.6801806045 0 0.223540626173)
(-87.6801431097 0 0.223558967198)
(-87.6801090594 0 0.223578931781)
(-87.680078696 0 0.223600203687)
(-87.6800514914 0 0.22362285012)
(-87.6800260987 0 0.22364708657)
(-87.6800007638 0 0.223673049546)
(-87.6799746193 0 0.223700981818)
(-87.6799484392 0 0.223731365248)
(-87.6799232629 0 0.223764165578)
(-87.6798995879 0 0.223798563969)
(-87.6798779272 0 0.223834073149)
(-87.679858239 0 0.2238707046)
(-87.6798392692 0 0.223908459488)
(-87.6798199793 0 0.223947542162)
(-87.6798000586 0 0.223988225392)
(-87.6797800865 0 0.224030937166)
(-87.6797603743 0 0.224075747737)
(-87.6797409201 0 0.224122578275)
(-87.6797214796 0 0.22417138041)
(-87.6797026851 0 0.22422214049)
(-87.6796859919 0 0.2242744605)
(-87.6796735432 0 0.224328001265)
(-87.6796650097 0 0.224382197255)
(-87.679657922 0 0.224436747892)
(-87.6796482432 0 0.224491460094)
(-87.67963346 0 0.224546356999)
(-87.6796129856 0 0.224601586281)
(-87.6795887576 0 0.224657658211)
(-87.6795630761 0 0.224714728557)
(-87.6795418973 0 0.224772881011)
(-87.6795392125 0 0.224831603618)
(-87.679566372 0 0.224887432861)
(-87.6796257124 0 0.224937120722)
(-87.6797167869 0 0.224977206535)
(-87.6798321903 0 0.225004610114)
(-87.6799585617 0 0.225014652085)
(-87.6800821689 0 0.224994292572)
(-87.6801812898 0 0.224913721228)
(-87.680240589 0 0.22476779875)
(-87.6802824709 0 0.22456265229)
(-87.6803046514 0 0.224318099423)
(-87.6803173832 0 0.224069611117)
(-87.6803342045 0 0.223852056315)
(-87.6803593189 0 0.223686653323)
(-87.680404419 0 0.223571949748)
(-87.6804905142 0 0.223499323208)
(-87.6805979949 0 0.223464646943)
(-87.6806869514 0 0.22345129735)
(-87.6807354745 0 0.223450003913)
(-87.6807441983 0 0.223454703168)
(-87.6807288638 0 0.223458819863)
(-87.680628911 0 0.321721670545)
(-87.6805701272 0 0.321712943786)
(-87.6805035036 0 0.321703338665)
(-87.6804414143 0 0.321694014649)
(-87.6803888398 0 0.321685020201)
(-87.6803457015 0 0.321676430356)
(-87.6803094552 0 0.321668527047)
(-87.6802767842 0 0.321661592195)
(-87.6802443092 0 0.321656068494)
(-87.6802089235 0 0.321652529688)
(-87.6801687861 0 0.321651517078)
(-87.6801246075 0 0.321653265743)
(-87.6800793704 0 0.321657821298)
(-87.6800361725 0 0.321665140797)
(-87.6799966409 0 0.321675170186)
(-87.6799609948 0 0.321687780107)
(-87.6799285688 0 0.321702997737)
(-87.6798980474 0 0.321721165543)
(-87.6798677465 0 0.321742700132)
(-87.6798365727 0 0.321767912638)
(-87.6798050212 0 0.321797095497)
(-87.6797747961 0 0.32183056664)
(-87.6797464347 0 0.321867505312)
(-87.6797196372 0 0.321907147314)
(-87.6796944121 0 0.321949603372)
(-87.6796700571 0 0.32199491497)
(-87.6796453996 0 0.322043091693)
(-87.6796200782 0 0.322094241905)
(-87.6795948069 0 0.322148600136)
(-87.6795700337 0 0.322205999897)
(-87.6795457895 0 0.322266175464)
(-87.6795217577 0 0.322328862362)
(-87.679498659 0 0.322393810751)
(-87.6794783155 0 0.322460483684)
(-87.679463116 0 0.322528512535)
(-87.6794526669 0 0.322597348215)
(-87.6794442716 0 0.322666674995)
(-87.6794337333 0 0.322736227062)
(-87.6794184989 0 0.322805965285)
(-87.6793975453 0 0.322875928631)
(-87.67937155 0 0.322946481302)
(-87.6793434984 0 0.323018191311)
(-87.6793217281 0 0.323091100436)
(-87.6793203532 0 0.32316393297)
(-87.6793503557 0 0.323233274473)
(-87.679415685 0 0.323295147991)
(-87.6795157256 0 0.323345287493)
(-87.6796417901 0 0.323380400554)
(-87.6797789942 0 0.323396308697)
(-87.6799131917 0 0.323380364759)
(-87.6800237268 0 0.323300546606)
(-87.6800906513 0 0.323147886705)
(-87.6801405031 0 0.322931033065)
(-87.6801680333 0 0.32267143499)
(-87.6801860359 0 0.322406875588)
(-87.6802082226 0 0.322174791375)
(-87.6802393137 0 0.321997450672)
(-87.6802924407 0 0.321872836263)
(-87.6803892189 0 0.32179236432)
(-87.6805083903 0 0.321751652491)
(-87.6806077771 0 0.321733492871)
(-87.6806640156 0 0.321727392034)
(-87.6806772697 0 0.321727368027)
(-87.6806648341 0 0.321726887203)
(-87.6806694688 0 0.410345897532)
(-87.6806134993 0 0.410330978136)
(-87.6805469607 0 0.410313924854)
(-87.6804847579 0 0.410295882377)
(-87.6804326775 0 0.410276777642)
(-87.6803899901 0 0.41025638433)
(-87.6803535813 0 0.410234963387)
(-87.6803199719 0 0.410212848334)
(-87.6802855034 0 0.41019059019)
(-87.6802467214 0 0.410168958252)
(-87.6802017221 0 0.410148973206)
(-87.6801515019 0 0.410131470463)
(-87.6800993658 0 0.410116872435)
(-87.6800487642 0 0.41010537947)
(-87.6800015276 0 0.410097289704)
(-87.6799577518 0 0.410093009994)
(-87.6799165218 0 0.410093087235)
(-87.6798764299 0 0.410098310031)
(-87.6798359968 0 0.410109665592)
(-87.6797943392 0 0.410127902397)
(-87.6797520325 0 0.410153299084)
(-87.6797114628 0 0.410186568191)
(-87.6796732502 0 0.410226816876)
(-87.6796363523 0 0.410272791383)
(-87.6796010998 0 0.410324471968)
(-87.6795673973 0 0.410381617211)
(-87.6795339885 0 0.410443770742)
(-87.6795004645 0 0.410510554248)
(-87.6794675922 0 0.410581667963)
(-87.6794359573 0 0.410656561434)
(-87.6794056277 0 0.410734685908)
(-87.6793762235 0 0.410815446738)
(-87.6793485826 0 0.410898338289)
(-87.6793246138 0 0.410982673735)
(-87.6793067386 0 0.411068080543)
(-87.6792945153 0 0.411154025239)
(-87.679285091 0 0.411240129863)
(-87.6792743019 0 0.411326007389)
(-87.679259096 0 0.411411443482)
(-87.6792377858 0 0.411496560276)
(-87.6792108233 0 0.411582011848)
(-87.6791818311 0 0.411668306733)
(-87.6791605062 0 0.411755358046)
(-87.6791616375 0 0.411841830016)
(-87.6791968776 0 0.41192413212)
(-87.6792711236 0 0.411997506057)
(-87.6793828765 0 0.412057013675)
(-87.6795217663 0 0.412099183135)
(-87.6796714207 0 0.412120571212)
(-87.6798176173 0 0.412109396026)
(-87.679941799 0 0.412031872544)
(-87.680018321 0 0.41187331669)
(-87.680078122 0 0.411645879144)
(-87.6801118507 0 0.411371974165)
(-87.680137651 0 0.411092447011)