/*--------------------------------*- C++ -*----------------------------------*\
  =========                 |
  \\      /  F ield         | OpenFOAM: The Open Source CFD Toolbox
   \\    /   O peration     | Website:  https://openfoam.org
    \\  /    A nd           | Version:  6
     \\/     M anipulation  |
\*---------------------------------------------------------------------------*/
FoamFile
{
    version     2.0;
    format      ascii;
    class       volScalarField;
    location    "4.68e-05";
    object      p;
}
// * * * * * * * * * * * * * * * * * * * * * * * * * * * * * * * * * * * * * //

dimensions      [1 -1 -2 0 0 0 0];

internalField   nonuniform List<scalar> 
8192
(
6000000.00056
5999999.9994
6000000.00051
6000000.00073
6000000.00434
5999999.9977
6000000.0014
5999999.99974
6000000.00014
5999999.99983
6000000.00024
5999999.9998
6000000.00062
6000000.00142
6000000.00073
6000000.00052
6000000.00058
5999999.99846
5999999.99899
6000000.00067
5999999.9985
5999999.99724
6000000.00174
5999999.99978
5999999.99957
6000000.00013
5999999.99844
5999999.99924
5999999.99823
5999999.99923
6000000.00021
6000000.00043
5999999.99669
5999999.99373
6000000.00772
6000000.00761
5999999.99906
6000000.00456
5999999.99938
5999999.99737
6000000.00314
5999999.99796
6000000.00013
5999999.9999
6000000.00031
6000000.00029
6000000.00002
6000000
5999999.99918
6000000.00143
5999999.99726
6000000.00042
6000000.00293
5999999.99617
5999999.99686
6000000.00133
5999999.99999
6000000.0029
5999999.99989
6000000.0054
5999999.99673
5999999.99758
5999999.99718
6000000.00212
6000000.00053
6000000.00197
5999999.9997
6000000.00367
5999999.99592
6000000.00304
5999999.99875
5999999.99706
6000000.00263
6000000.00279
6000000.00686
5999999.99673
5999999.99432
6000000.00647
6000000.00254
5999999.99542
5999999.99457
5999999.99228
6000000.00314
6000000.00584
6000000.00009
5999999.99906
6000000.00639
6000000.00479
5999999.99783
5999999.99716
5999999.99868
5999999.99829
5999999.99718
6000000.00398
5999999.99703
6000000.00201
6000000.00161
5999999.99945
6000000.00375
5999999.99827
5999999.99963
5999999.99988
5999999.99973
6000000.00015
5999999.99906
6000000.00029
6000000.00012
6000000
5999999.99998
5999999.99998
6000000.00007
6000000.00019
5999999.99951
6000000.00061
5999999.99977
6000000.00113
6000000.0001
5999999.99887
6000000.00081
5999999.99925
5999999.99928
5999999.99893
6000000.00005
5999999.99921
6000000.00018
5999999.99956
6000000.00034
6000000.0003
6000000.00577
6000000.00054
5999999.99747
6000000.0006
5999999.99887
5999999.99947
5999999.99997
5999999.9998
6000000.00053
6000000.00088
5999999.99853
6000000.00373
6000000.00079
6000000.00322
6000000.0044
5999999.99675
5999999.99664
5999999.99816
6000000.00215
6000000.0023
5999999.99986
5999999.99989
5999999.99885
6000000.00065
5999999.99497
6000000.00085
5999999.99671
5999999.99658
6000000.00148
6000000.00073
5999999.99856
5999999.99908
5999999.99979
5999999.99958
6000000.00022
6000000.00052
5999999.99966
6000000.00229
6000000.00018
6000000.00115
5999999.99813
6000000.00058
5999999.99761
6000000.00296
6000000.00209
6000000.00278
6000000.00193
6000000.00412
6000000.00243
6000000.00069
5999999.99437
6000000.0027
6000000.00145
5999999.99812
6000000.00077
5999999.99794
6000000.00267
6000000.00126
6000000.00212
5999999.99366
5999999.99225
6000000.00184
6000000.00635
6000000.00421
5999999.99929
5999999.99958
6000000.0008
6000000.00019
5999999.99992
6000000.00001
5999999.99997
6000000.00001
6000000.00015
6000000.00002
6000000.00004
5999999.99772
5999999.99761
6000000.00278
5999999.99922
5999999.99998
6000000.00004
5999999.99998
6000000.00011
6000000.00024
6000000.00026
5999999.99942
5999999.99994
6000000.00003
5999999.9998
5999999.99998
5999999.99992
5999999.99612
6000000.00065
6000000.00156
5999999.99683
6000000.00094
6000000.00696
5999999.99401
5999999.99676
6000000.00531
6000000.00866
5999999.99173
5999999.99548
6000000.0016
6000000.00387
5999999.9958
6000000.00302
6000000.00021
6000000.00457
5999999.99822
6000000.0072
6000000.00366
5999999.9919
6000000.00043
6000000.00611
5999999.99813
6000000.00526
5999999.99417
5999999.99866
6000000.00168
6000000.00286
6000000.00361
6000000.00056
6000000.0022
6000000.00083
5999999.99893
5999999.99939
5999999.99916
5999999.99987
5999999.99884
6000000.00051
5999999.99814
6000000.00234
5999999.99851
5999999.99974
5999999.9993
5999999.99975
5999999.99992
5999999.9999
6000000.00115
6000000.0016
5999999.99686
6000000.00043
6000000.00115
5999999.99999
6000000.00261
5999999.995
5999999.99723
6000000.00524
6000000.0012
5999999.99625
5999999.99509
5999999.99934
5999999.99468
5999999.99826
5999999.99479
6000000.00155
6000000.00497
5999999.99628
6000000.00058
5999999.99907
6000000.00136
5999999.9996
5999999.99926
6000000.00168
5999999.99761
6000000.00168
6000000.00008
6000000.00001
6000000.00016
6000000.00001
6000000.00001
6000000.00002
6000000.00024
5999999.99889
6000000.0014
5999999.9971
5999999.99986
5999999.99866
6000000.00142
6000000.00542
5999999.99843
5999999.99393
6000000.00279
6000000.00621
5999999.9979
6000000.00351
5999999.99825
6000000.00643
5999999.99658
5999999.99694
5999999.99649
6000000.00212
6000000.00197
5999999.9957
6000000.00182
6000000.00089
6000000.00025
6000000.00083
5999999.9989
6000000.00026
6000000.00051
5999999.99832
6000000.0026
6000000.00226
6000000.001
6000000.00018
5999999.99965
5999999.99724
5999999.99764
6000000.00053
6000000.00081
5999999.99979
5999999.99858
5999999.99797
6000000.00087
5999999.99656
6000000.00076
5999999.99678
5999999.99394
5999999.99661
6000000.00331
5999999.99761
5999999.99623
6000000.00729
5999999.99873
6000000.00289
6000000.00007
5999999.99695
6000000.00391
5999999.9959
6000000.00341
5999999.99977
5999999.9995
6000000.00075
5999999.99989
6000000.00036
6000000.0001
6000000.00054
6000000.00165
5999999.99828
6000000.00293
6000000.00105
5999999.9977
6000000.00181
5999999.99989
5999999.99987
6000000.00396
5999999.99833
6000000.00345
6000000.00309
5999999.99371
5999999.99289
5999999.99566
5999999.9988
6000000.00093
6000000.0019
6000000.00252
5999999.99473
5999999.99167
6000000.00158
5999999.99622
5999999.99866
6000000.00532
5999999.99842
5999999.99884
6000000.00191
5999999.99687
5999999.99798
6000000.00653
5999999.99599
5999999.99907
5999999.99374
6000000.00158
6000000.00521
5999999.99985
5999999.99802
5999999.99122
6000000.00374
5999999.99942
6000000.0042
5999999.99849
5999999.99699
6000000.00278
5999999.99493
5999999.99363
6000000.00022
6000000.00293
5999999.99817
5999999.99795
5999999.9976
6000000.00183
6000000.00196
5999999.99795
6000000.00176
5999999.99859
5999999.9993
6000000.00083
5999999.99939
5999999.99983
6000000.00004
6000000.00028
6000000.00113
5999999.99685
6000000.0012
6000000.00026
5999999.99953
5999999.99715
6000000.00146
6000000.00055
5999999.99886
6000000.00124
6000000.00119
5999999.998
5999999.99931
6000000.00029
5999999.99951
5999999.99714
5999999.99701
5999999.99876
5999999.99598
6000000.00223
6000000.00201
6000000.00045
6000000.0004
5999999.9993
6000000.00257
5999999.99805
6000000.00294
6000000.00209
5999999.99533
6000000.0045
6000000.00138
6000000.00048
6000000.00073
5999999.99846
6000000.00209
5999999.99979
5999999.99928
6000000.00087
6000000.00021
5999999.99959
5999999.99768
6000000.0036
5999999.9972
5999999.9996
6000000.0015
5999999.99719
6000000.00325
5999999.99667
6000000.00219
5999999.99906
5999999.99961
5999999.99761
6000000.00264
6000000.00638
5999999.99809
5999999.99799
6000000.00076
6000000.00256
5999999.9985
5999999.99775
6000000.00513
5999999.99834
5999999.99986
5999999.99976
6000000.00069
6000000.003
5999999.99761
6000000.00406
5999999.99847
5999999.99862
6000000.00174
6000000.0001
5999999.99992
6000000.00303
6000000.00078
6000000.00252
5999999.99904
5999999.99891
5999999.99948
5999999.99716
5999999.9951
6000000.00244
6000000.00093
5999999.99872
5999999.99961
5999999.99904
6000000.00005
5999999.99855
6000000.00062
5999999.99945
6000000.00022
5999999.99983
5999999.99998
6000000.00003
5999999.99898
6000000.00055
6000000.00008
5999999.99988
5999999.99989
5999999.9998
6000000.00009
6000000.00014
5999999.99985
5999999.99989
5999999.99982
6000000.00002
5999999.99981
5999999.99992
5999999.99976
5999999.99966
6000000.00001
6000000
5999999.99981
5999999.99998
6000000.00001
5999999.99994
5999999.99865
6000000.00261
5999999.9982
5999999.99935
5999999.99929
5999999.99947
6000000.00004
5999999.99998
6000000.00001
5999999.99997
6000000.00096
6000000.00035
6000000.00002
6000000.00009
5999999.99952
5999999.99763
6000000.00265
6000000.00248
5999999.99883
5999999.99403
5999999.99272
6000000.00176
6000000.00533
6000000.00191
6000000.0041
5999999.99671
6000000.00453
5999999.99374
6000000.00083
5999999.99647
6000000.00044
6000000.00014
6000000.00252
5999999.99909
6000000.00161
5999999.99749
6000000.00148
5999999.99989
6000000.00002
6000000.00026
6000000.00025
6000000
5999999.99957
6000000.00236
5999999.99976
6000000.00001
6000000.00002
5999999.99992
5999999.99989
6000000.00005
6000000.00034
5999999.99927
5999999.99911
5999999.99912
5999999.99897
5999999.99977
5999999.99869
5999999.99737
6000000.00147
6000000.00076
6000000.00076
6000000.00199
5999999.9977
5999999.99721
6000000.00766
6000000.00351
6000000.00112
6000000.00333
5999999.99739
5999999.99911
6000000.00062
5999999.99972
6000000.00052
6000000.00005
6000000.00055
6000000.00023
6000000.00209
5999999.99929
5999999.9985
6000000.00026
5999999.99962
6000000.00007
6000000.00515
5999999.99971
5999999.99768
6000000.00315
6000000.00175
6000000.00074
6000000.00094
5999999.99713
5999999.99811
6000000.00474
6000000.00478
6000000.00273
5999999.99749
5999999.9977
6000000.00261
5999999.99977
5999999.99829
5999999.9974
6000000.0034
6000000.00237
6000000.00001
6000000.00148
5999999.99843
6000000.00108
5999999.99955
6000000.00065
6000000.00064
6000000.00051
6000000.00085
5999999.99944
5999999.99904
6000000.00153
6000000.00131
5999999.99353
5999999.99505
6000000.00357
6000000.00124
5999999.9996
5999999.99846
6000000.00272
5999999.99744
6000000.00083
6000000.0015
6000000.00258
5999999.99343
6000000.00285
6000000.00176
6000000.00513
5999999.99528
5999999.99758
6000000.00142
6000000.0009
5999999.99457
5999999.99834
6000000.00383
6000000.00583
5999999.99888
6000000.00176
6000000.00131
6000000.00447
5999999.99717
6000000.00123
6000000.00171
5999999.99591
6000000.00329
6000000.0029
6000000.00565
6000000.00883
5999999.99516
5999999.99781
6000000.00407
6000000.00663
5999999.99429
5999999.99426
6000000.00238
5999999.99772
6000000
6000000.00066
5999999.99676
6000000.00228
5999999.99747
6000000.00103
5999999.99673
5999999.99498
6000000.00322
6000000.00338
5999999.99887
6000000.00342
6000000.0015
6000000.00044
5999999.99957
5999999.99936
5999999.99793
6000000.00389
6000000.00769
5999999.99643
5999999.99875
5999999.99212
6000000.00512
6000000.00662
5999999.99567
5999999.99706
5999999.99601
5999999.99758
5999999.99632
6000000.00051
5999999.99933
6000000.00099
5999999.99936
5999999.99953
6000000.00298
5999999.99489
5999999.99507
5999999.99646
6000000.00605
6000000.00013
5999999.99918
6000000.00097
5999999.99961
6000000.00227
5999999.99933
6000000.00158
6000000.00613
5999999.99615
5999999.99483
5999999.99344
6000000.00268
6000000.0025
5999999.99257
5999999.99733
5999999.9967
6000000.00139
5999999.99854
5999999.99394
6000000.00438
6000000.00392
6000000.00003
6000000.00089
5999999.99999
6000000.00029
6000000.00037
6000000.00019
6000000.00001
5999999.99998
5999999.99991
5999999.99988
6000000.00015
6000000.00011
5999999.99896
6000000.00169
6000000.00549
6000000.0001
6000000.0006
6000000.0024
5999999.99924
6000000.00279
6000000.00079
5999999.99974
5999999.99991
5999999.99979
6000000.00156
5999999.99765
5999999.99734
6000000.00121
5999999.99701
6000000.00086
5999999.99906
5999999.9997
5999999.99959
5999999.99998
5999999.99985
6000000.00003
6000000.0001
5999999.99753
6000000.00292
5999999.99882
5999999.9993
5999999.99992
5999999.9973
6000000.00092
6000000.00083
6000000.00004
6000000.00034
5999999.9989
6000000.00335
5999999.99988
6000000.00005
6000000.00053
5999999.99953
6000000.00041
5999999.99811
6000000.00495
6000000.0032
5999999.99593
5999999.99824
6000000.00227
5999999.99805
6000000.00338
5999999.99933
6000000
6000000.00006
5999999.99964
6000000.00015
5999999.99946
6000000.00106
5999999.99745
6000000.00184
6000000.00088
6000000.00081
5999999.99969
6000000.0003
5999999.99705
6000000.00695
6000000.00319
5999999.99453
6000000.00145
6000000.00315
6000000.00429
5999999.9966
5999999.99507
6000000.00317
5999999.99873
5999999.99956
6000000.00011
5999999.99994
5999999.99992
5999999.99996
6000000.00002
5999999.99989
5999999.99993
5999999.99988
6000000.00019
5999999.99872
6000000.00181
5999999.99744
5999999.9995
6000000.00131
5999999.9939
6000000.00477
6000000.00515
6000000.00168
5999999.99911
6000000.00338
6000000.00514
5999999.99738
5999999.99612
6000000.00352
5999999.99955
6000000.00336
6000000.00515
6000000.00057
6000000.00596
6000000.00004
5999999.99979
6000000.00095
6000000.00065
5999999.99989
6000000
6000000.0034
5999999.99849
6000000.00103
6000000.00187
6000000.00313
6000000.00238
5999999.99414
6000000.00144
6000000.00053
6000000.00029
5999999.99914
6000000.00536
6000000.00288
5999999.99809
6000000.00264
6000000.00018
5999999.99967
6000000.00068
5999999.99932
6000000.00192
5999999.99333
6000000.00293
6000000.00167
5999999.99974
5999999.99922
6000000.00005
6000000.00087
6000000
6000000.00002
6000000.00002
6000000
6000000.00001
5999999.99989
6000000.00001
5999999.99981
6000000
6000000.00013
5999999.99926
6000000.00101
5999999.99987
5999999.99979
5999999.99979
6000000.00007
5999999.99863
6000000.00009
6000000.00035
6000000.00069
5999999.99811
5999999.99824
6000000.001
6000000.00129
5999999.99915
6000000.00092
5999999.99853
6000000.00254
6000000.00206
6000000.0005
6000000.00032
5999999.9995
5999999.99882
6000000.00222
5999999.99525
6000000.00673
5999999.99672
5999999.99504
6000000.00425
6000000.0041
6000000.00531
6000000.00004
6000000.00017
5999999.99542
5999999.9948
5999999.99583
6000000.00156
5999999.99765
6000000.00498
5999999.99941
5999999.99779
6000000.00073
5999999.99769
6000000.00153
5999999.99803
6000000.0047
5999999.99382
5999999.99616
6000000.00476
5999999.99541
5999999.99689
5999999.99833
6000000.00148
6000000.00135
6000000.00099
6000000.00002
6000000.001
6000000.00019
6000000.00219
5999999.99616
6000000.00162
6000000.0009
5999999.99988
5999999.99793
5999999.99979
5999999.99976
5999999.99789
5999999.99889
6000000.00107
5999999.99995
6000000.00128
6000000.00185
5999999.99796
5999999.99891
6000000.00398
5999999.99942
5999999.99983
5999999.99997
6000000.00001
6000000.00001
6000000.00014
6000000.00002
5999999.99996
6000000.0005
6000000.00032
5999999.99663
6000000.00052
5999999.99996
5999999.99981
6000000.00002
6000000.00029
5999999.99812
6000000.00302
6000000.00198
5999999.99503
6000000.00675
5999999.99383
5999999.99264
6000000.00303
6000000.00583
5999999.99257
5999999.99767
5999999.9976
5999999.99959
6000000.00182
5999999.99825
6000000.00084
5999999.9966
5999999.99726
6000000.0001
5999999.99799
6000000.00262
5999999.99756
6000000.00177
6000000.0031
5999999.99537
5999999.99613
5999999.99496
5999999.99964
6000000.00462
6000000.00174
5999999.99621
5999999.99304
6000000.00411
6000000.0032
5999999.99458
5999999.99879
6000000.00527
6000000.00415
5999999.9975
5999999.99819
6000000.00373
5999999.99977
6000000.00002
6000000.00001
5999999.99996
6000000.00055
6000000.0015
5999999.99858
5999999.99836
5999999.99905
6000000.00008
6000000.00115
5999999.99977
6000000.00044
5999999.99852
5999999.99792
6000000.00138
6000000.00033
6000000.00007
6000000.00002
6000000
5999999.99992
5999999.99996
6000000.00016
5999999.99948
5999999.99867
6000000.00019
6000000.00251
5999999.9979
5999999.99987
5999999.99994
5999999.99538
6000000.00096
6000000.00061
6000000.00359
6000000.00157
5999999.99984
6000000.00097
6000000.00043
5999999.99781
6000000.00319
5999999.99714
6000000.0026
6000000.0012
6000000.00434
5999999.99959
5999999.99966
6000000.00597
6000000.00243
6000000.00289
6000000.00189
5999999.9962
5999999.99896
6000000.00235
6000000.00001
5999999.99727
5999999.99764
6000000.00189
5999999.99709
5999999.99929
5999999.99729
6000000.00026
6000000.00214
5999999.99879
5999999.99881
5999999.99872
5999999.99982
5999999.99984
6000000.00091
6000000.00025
6000000.00036
5999999.99924
6000000.00136
6000000.00153
5999999.99781
6000000.00011
6000000.00011
6000000.00002
6000000.00011
6000000.00006
6000000.00066
6000000.00112
5999999.99835
6000000.00224
6000000.0015
5999999.99669
6000000.00443
5999999.99533
5999999.99883
6000000.00268
6000000.00658
6000000.00312
6000000.002
6000000.00157
5999999.9932
5999999.99747
5999999.99842
5999999.9994
6000000.00291
6000000.00508
5999999.99356
5999999.99705
5999999.99468
6000000.00592
6000000.00278
6000000.00272
5999999.99892
6000000.00069
6000000.00078
6000000.0016
5999999.99955
5999999.99906
5999999.9997
6000000.00003
5999999.99998
6000000.00071
5999999.9992
6000000.0009
5999999.99952
6000000.00009
5999999.99883
5999999.99612
6000000.00275
6000000.00091
5999999.99583
5999999.99519
6000000.00607
5999999.99803
5999999.99558
6000000.00176
6000000.00642
5999999.99521
6000000.00388
5999999.99898
5999999.99852
6000000.00477
5999999.9995
6000000.00015
5999999.99998
6000000
6000000.00007
6000000.00001
6000000.00007
6000000.00002
6000000.00007
6000000.0002
6000000.00025
6000000.00004
6000000.00005
5999999.99966
6000000.00077
6000000.00152
5999999.99587
6000000.00338
6000000.00512
5999999.99855
6000000.00171
6000000.00177
6000000.00198
5999999.9995
6000000.0004
5999999.99351
6000000.00107
5999999.99923
6000000.00146
6000000.00215
5999999.999
5999999.99872
5999999.99925
5999999.99922
6000000.0002
5999999.9988
6000000.00106
6000000.00207
5999999.99849
5999999.99947
5999999.99921
6000000.00078
6000000.00002
6000000
5999999.99996
5999999.99941
6000000.00058
5999999.99933
5999999.99779
6000000.00326
5999999.99681
6000000.00166
5999999.99917
5999999.99948
5999999.99977
5999999.99928
6000000.00195
5999999.99538
6000000.00204
5999999.99938
5999999.99946
6000000.00002
5999999.99944
5999999.99987
5999999.99983
6000000.00077
5999999.99885
5999999.99932
5999999.99995
5999999.99993
5999999.99992
5999999.99998
6000000.00009
5999999.99993
5999999.99979
6000000
5999999.9999
5999999.9999
6000000.00001
5999999.99973
6000000.00109
5999999.9998
6000000.00013
6000000.00015
6000000.00116
5999999.99849
6000000.00179
5999999.99682
6000000.00214
6000000.00135
6000000.00198
6000000.00246
5999999.9969
5999999.99944
5999999.99831
6000000.00201
5999999.99913
5999999.9976
6000000.00113
5999999.99865
5999999.99934
5999999.99975
6000000.00028
6000000.00377
6000000.00145
6000000.00333
5999999.99895
6000000.0003
6000000.00216
5999999.99526
6000000.00115
5999999.99668
6000000.00461
6000000.0023
5999999.99473
5999999.99503
5999999.99527
6000000.00545
6000000.00196
6000000.00589
5999999.99696
5999999.99751
6000000.00088
5999999.99466
5999999.99491
5999999.99729
5999999.99814
6000000.00175
5999999.99559
5999999.99731
5999999.99282
5999999.99995
5999999.9951
5999999.99784
5999999.99706
5999999.99694
5999999.99614
5999999.9952
6000000.00379
6000000.00097
6000000.00104
5999999.99526
6000000.00175
6000000
5999999.99983
6000000.00063
5999999.99919
6000000.00004
5999999.99655
6000000.00355
5999999.99438
5999999.99455
6000000.00194
5999999.99461
5999999.99509
6000000.00614
5999999.99525
5999999.99397
6000000.00081
6000000.00171
5999999.99968
6000000.00089
6000000.0002
6000000.00013
5999999.99992
6000000.00055
5999999.99952
6000000.00044
5999999.99962
6000000.00017
6000000.00012
5999999.99992
5999999.99993
6000000.00003
6000000.00093
5999999.99935
5999999.99953
6000000.00127
5999999.99993
5999999.99993
5999999.99981
5999999.99955
5999999.99905
6000000.00026
6000000.00001
6000000.00004
5999999.99994
5999999.99951
6000000.00043
6000000.00163
5999999.99889
6000000.00097
6000000.0023
6000000.00243
5999999.99667
5999999.99779
6000000.00259
5999999.99958
6000000.00091
6000000.00057
5999999.9973
6000000.0024
6000000.00192
6000000.00029
5999999.99855
6000000.00005
5999999.99807
6000000.00282
6000000.00038
6000000.00118
5999999.99895
5999999.99814
6000000.00533
6000000.00532
5999999.99291
5999999.99714
6000000.00189
6000000.00151
5999999.99883
6000000.00125
6000000.00001
6000000.00304
5999999.99909
6000000.00179
5999999.99968
5999999.99975
6000000.00001
6000000.00004
5999999.99997
5999999.99998
5999999.99998
6000000.00001
6000000.00004
6000000.00014
6000000
6000000
6000000.00001
5999999.99999
6000000.00016
5999999.99997
6000000.00001
5999999.99993
5999999.99996
6000000.00014
6000000.00016
5999999.99995
6000000.00014
5999999.99999
6000000
5999999.9999
6000000.00019
5999999.99995
6000000.0002
5999999.99976
5999999.99954
5999999.9994
6000000.00008
5999999.99994
6000000.00215
5999999.99942
5999999.9997
5999999.99987
6000000.0001
6000000.00003
6000000.00012
5999999.99993
6000000.00001
6000000
5999999.99998
5999999.99929
6000000.0006
5999999.9989
6000000.00281
5999999.99971
5999999.99882
6000000.00149
5999999.99878
6000000.00311
6000000.00381
5999999.99899
5999999.99976
6000000.00628
6000000.00088
6000000.0007
6000000.00065
5999999.99974
6000000.00004
6000000.00007
6000000.00026
6000000.00008
6000000.00007
6000000.00017
5999999.99944
6000000.00085
6000000.00036
6000000.00025
6000000.00018
5999999.99989
6000000.00002
5999999.99992
6000000.00002
5999999.99999
6000000.00076
5999999.99846
5999999.99759
6000000.00291
5999999.99788
6000000.00277
5999999.9971
5999999.99918
5999999.99996
5999999.9974
5999999.99943
6000000.0032
5999999.9957
5999999.99432
6000000.00108
5999999.99396
5999999.99339
6000000.00138
5999999.99719
5999999.99924
5999999.99607
6000000.00208
6000000.00191
5999999.99726
6000000.004
5999999.99803
5999999.99809
6000000.00208
6000000.00189
6000000.00005
5999999.99951
5999999.99974
6000000.00004
5999999.99992
5999999.99965
6000000.00133
5999999.99949
6000000.00161
5999999.99857
5999999.99849
6000000.00023
5999999.99892
5999999.99945
5999999.99817
5999999.99895
5999999.99893
5999999.99994
5999999.9989
6000000.00369
5999999.99953
5999999.99858
5999999.99976
5999999.99998
5999999.99996
5999999.99983
5999999.99984
6000000.00022
5999999.99998
5999999.99996
6000000.00014
6000000.00008
5999999.99998
6000000.00007
5999999.99998
6000000.00017
6000000.00019
6000000.00057
5999999.99794
5999999.99876
6000000.00082
6000000.00006
5999999.99998
5999999.99998
6000000
5999999.99989
5999999.9998
6000000.00007
5999999.99994
5999999.9992
6000000.00059
5999999.99947
6000000.00094
5999999.99947
6000000.00007
6000000.0015
5999999.99955
6000000.00024
5999999.99994
6000000.00005
5999999.99991
6000000
5999999.99983
5999999.99991
5999999.99998
5999999.99976
5999999.99892
6000000.00021
5999999.99906
6000000.00253
5999999.99869
6000000.0007
6000000.00026
5999999.99985
6000000.00009
6000000.00092
5999999.99932
5999999.99566
6000000.00291
6000000.00018
6000000.00012
6000000.00043
6000000.00121
6000000.0007
5999999.99798
6000000.00338
6000000.00325
6000000.00013
5999999.99826
6000000.00246
6000000.00171
5999999.99846
6000000.00458
6000000.00031
6000000.00252
5999999.99692
5999999.99768
6000000.00096
5999999.9991
5999999.99989
5999999.99713
6000000.00347
6000000.00067
5999999.99923
6000000.00022
5999999.99843
6000000.00266
5999999.99857
6000000.00165
5999999.99555
6000000.00524
6000000.00428
5999999.99806
6000000.00131
5999999.9936
5999999.99299
6000000.00342
6000000.00265
6000000.0049
5999999.99873
5999999.99601
6000000.00432
5999999.99651
5999999.99864
5999999.99889
5999999.99854
6000000.0007
5999999.99939
6000000.00018
5999999.99971
5999999.99963
6000000.00024
5999999.99805
6000000.0016
5999999.99969
5999999.99928
6000000.00166
5999999.99865
6000000.00102
5999999.99654
6000000.00017
5999999.99998
5999999.99964
5999999.99842
5999999.99845
6000000.00149
6000000.0012
5999999.99942
6000000.00605
6000000.00238
5999999.99531
6000000.00264
5999999.9987
6000000.00599
6000000.00439
5999999.99729
5999999.99583
5999999.99882
6000000.00649
6000000.00199
5999999.99745
5999999.9967
5999999.99531
6000000.00292
5999999.99686
5999999.99498
5999999.9983
5999999.99468
6000000.00411
5999999.99733
5999999.99717
5999999.99879
6000000.00162
5999999.99758
5999999.99793
6000000.0015
6000000.00109
5999999.99685
5999999.99755
5999999.99601
5999999.99613
5999999.99715
5999999.99821
6000000.00063
5999999.99381
5999999.9948
6000000.00118
6000000.00024
5999999.99565
5999999.996
5999999.99514
5999999.99421
6000000.00432
5999999.99736
5999999.99268
5999999.99973
5999999.99566
6000000.00196
6000000.00522
5999999.99253
5999999.99445
5999999.99764
6000000.00548
6000000.00122
5999999.99801
6000000.00338
6000000.00482
5999999.99978
6000000.00609
5999999.99621
5999999.99364
6000000.00368
6000000.00102
5999999.99938
5999999.99467
5999999.99636
6000000.00275
5999999.99591
5999999.99837
6000000.00213
5999999.99898
6000000.00289
6000000.00718
6000000.00326
5999999.99879
5999999.99527
5999999.99723
6000000.00583
6000000.00222
5999999.99558
5999999.99706
6000000.00088
6000000.00626
6000000.00099
5999999.99894
5999999.99984
6000000.00186
5999999.99848
5999999.99913
6000000.00384
6000000.00178
5999999.99698
6000000.00268
5999999.99661
5999999.99963
5999999.99739
6000000.0004
6000000.00177
5999999.99401
5999999.99999
6000000.00111
5999999.99415
5999999.99741
6000000.00307
5999999.99816
5999999.99812
6000000.00283
5999999.99836
5999999.99657
5999999.99562
5999999.99821
5999999.99623
5999999.99928
5999999.99794
6000000.00686
5999999.99761
6000000.00039
6000000.00535
5999999.99855
6000000.00195
6000000.00001
6000000.00864
5999999.99705
6000000.00072
6000000.00636
6000000.00698
5999999.99891
5999999.99782
6000000.01009
6000000.00792
6000000.00617
5999999.99808
5999999.99787
6000000.00805
6000000.00852
6000000.00178
6000000.00673
6000000.00237
5999999.99486
6000000.0068
6000000.00801
6000000.00013
5999999.99716
6000000.00754
6000000.00261
5999999.99387
6000000.0024
6000000.00215
6000000.00915
6000000.00779
5999999.99761
6000000.0022
6000000.00724
5999999.99618
5999999.99928
6000000.00651
6000000.0093
6000000.00047
6000000.00631
6000000.0056
6000000.00488
5999999.9979
6000000.00114
6000000.00844
6000000.00952
6000000.01015
6000000.00301
6000000.00288
6000000.00642
6000000.01041
5999999.99969
6000000.00285
6000000.00579
5999999.99656
6000000.00576
6000000.00525
6000000.00982
6000000.00421
6000000.00743
6000000.00578
5999999.9935
6000000.00687
6000000.00221
5999999.9984
6000000.00877
5999999.99883
5999999.99982
5999999.99874
6000000.00047
5999999.99825
5999999.99978
5999999.99887
5999999.99953
5999999.99926
5999999.99947
5999999.99729
5999999.99779
5999999.99961
5999999.99823
6000000.0002
5999999.99822
5999999.99903
5999999.9982
6000000.00017
5999999.99799
5999999.99737
5999999.99865
5999999.9997
5999999.99871
5999999.99882
5999999.99963
5999999.99764
5999999.99849
5999999.99936
5999999.99574
5999999.9983
6000000.00026
5999999.99924
5999999.99662
5999999.99945
5999999.99749
5999999.99986
5999999.99892
5999999.99872
5999999.99682
5999999.99909
6000000.00005
5999999.99788
5999999.99939
5999999.99969
5999999.99873
5999999.99881
5999999.9992
5999999.99667
5999999.99681
5999999.99933
5999999.9999
6000000.00024
6000000.00062
5999999.99836
5999999.99904
5999999.99795
5999999.99826
5999999.99835
5999999.99873
5999999.99963
6000000.00046
6000000.00208
5999999.99834
5999999.9994
5999999.99942
5999999.99982
5999999.99965
6000000.00063
5999999.99979
5999999.99953
6000000.00034
5999999.99975
5999999.99972
5999999.99974
5999999.99975
6000000.0005
5999999.99999
5999999.99978
5999999.99965
6000000.00027
6000000.00038
5999999.99983
6000000.00022
5999999.99983
6000000.00038
5999999.99989
5999999.99978
6000000.00019
5999999.99993
6000000.00042
5999999.99981
6000000.00004
5999999.99947
6000000.0003
6000000.00042
6000000.00026
6000000.00053
5999999.99987
6000000.00042
6000000.00051
5999999.99965
6000000.00013
5999999.99986
6000000.00036
6000000.0001
5999999.99964
6000000.00039
6000000.00019
6000000.00046
6000000.00029
5999999.9995
5999999.99979
5999999.99975
6000000.00014
6000000.00006
6000000.00034
6000000.00043
5999999.99969
6000000.00001
6000000.00025
5999999.99989
6000000.0003
6000000.00018
6000000.00026
6000000.00043
5999999.99972
6000000.0006
6000000.00067
6000000.00094
6000000.00096
6000000.00109
6000000.00064
6000000.00097
6000000.0008
6000000.00123
6000000.00077
6000000.0008
6000000.00079
6000000.00084
6000000.00076
6000000.00082
6000000.00085
6000000.00096
6000000.00073
6000000.00087
6000000.00105
6000000.00088
6000000.00102
6000000.00115
6000000.0007
6000000.00102
6000000.0009
6000000.00084
6000000.00066
6000000.00052
6000000.00093
6000000.00085
6000000.00081
6000000.00089
6000000.00083
6000000.00115
6000000.00069
6000000.00093
6000000.00067
6000000.00083
6000000.00058
6000000.00083
6000000.00096
6000000.00095
6000000.00095
6000000.00089
6000000.00087
6000000.00092
6000000.00079
6000000.00096
6000000.00113
6000000.00113
6000000.00074
6000000.00084
6000000.00078
6000000.00094
6000000.00094
6000000.00093
6000000.00093
6000000.00096
6000000.00096
6000000.00092
6000000.00087
6000000.00118
6000000.00134
6000000.00083
5999999.99905
5999999.99874
5999999.99889
5999999.999
5999999.99879
5999999.99923
5999999.99885
5999999.99882
5999999.99873
5999999.99876
5999999.99887
5999999.99907
5999999.99903
5999999.9989
5999999.99866
5999999.99879
5999999.99877
5999999.99906
5999999.99889
5999999.99911
5999999.99883
5999999.99881
5999999.99913
5999999.999
5999999.99881
5999999.99892
5999999.99936
5999999.99879
5999999.99896
5999999.99907
5999999.99903
5999999.99941
5999999.99909
5999999.99909
5999999.99884
5999999.99888
5999999.99914
5999999.99874
5999999.99861
5999999.99869
5999999.99905
5999999.99907
5999999.99884
5999999.99903
5999999.99896
5999999.99898
5999999.99933
5999999.99909
5999999.99886
5999999.999
5999999.99887
5999999.99869
5999999.99889
5999999.99865
5999999.99896
5999999.99889
5999999.99903
5999999.999
5999999.99891
5999999.99891
5999999.99884
5999999.99902
5999999.99885
5999999.99885
5999999.99954
5999999.99929
5999999.99948
5999999.99976
5999999.99966