/*--------------------------------*- C++ -*----------------------------------*\
  =========                 |
  \\      /  F ield         | OpenFOAM: The Open Source CFD Toolbox
   \\    /   O peration     | Website:  https://openfoam.org
    \\  /    A nd           | Version:  6
     \\/     M anipulation  |
\*---------------------------------------------------------------------------*/
FoamFile
{
    version     2.0;
    format      ascii;
    class       volVectorField;
    location    "4.68e-05";
    object      U;
}
// * * * * * * * * * * * * * * * * * * * * * * * * * * * * * * * * * * * * * //

dimensions      [0 1 -1 0 0 0 0];

internalField   nonuniform List<vector> 
8192
(
(-88.322 0 -2.77359428689e-10)
(-88.3219999996 0 -7.01437046708e-11)
(-88.3220000001 0 -6.76589627344e-11)
(-88.3220000003 0 -2.4440524259e-10)
(-88.3219999995 0 -6.16739330666e-11)
(-88.3219999997 0 1.53681489809e-11)
(-88.3220000003 0 -2.05732329978e-12)
(-88.322 0 8.7004712616e-11)
(-88.322 0 -2.45163794237e-10)
(-88.322 0 -5.60084993741e-10)
(-88.3219999999 0 -6.80746795659e-10)
(-88.322 0 3.50863441041e-10)
(-88.3220000002 0 6.44637778547e-10)
(-88.322 0 -7.13442049161e-10)
(-88.3219999999 0 -6.10414992638e-10)
(-88.3219999999 0 3.40009370432e-10)
(-88.3219999998 0 2.60611684591e-10)
(-88.3219999999 0 6.03753153157e-10)
(-88.3220000002 0 -4.14700382277e-10)
(-88.322 0 -5.35334826921e-10)
(-88.3219999997 0 2.58939721909e-10)
(-88.3220000003 0 3.70401175117e-10)
(-88.3220000003 0 -5.60503686664e-10)
(-88.3219999998 0 -5.4437531924e-10)
(-88.322 0 1.57051510257e-10)
(-88.3219999999 0 1.63347265329e-10)
(-88.3219999999 0 2.04035938633e-10)
(-88.3219999999 0 1.71839349869e-10)
(-88.3220000002 0 2.82926601185e-10)
(-88.3220000002 0 -1.42832984072e-10)
(-88.3219999999 0 2.01138983624e-10)
(-88.3219999997 0 -3.7622162303e-11)
(-88.321999999 0 1.14218529129e-10)
(-88.3220000017 0 5.14331882283e-10)
(-88.3220000025 0 -7.83109298659e-10)
(-88.3219999988 0 -6.04385590948e-10)
(-88.3219999996 0 -1.83229575484e-11)
(-88.3219999996 0 -5.40406473221e-10)
(-88.3219999986 0 1.71642248506e-10)
(-88.3220000006 0 1.58892618865e-10)
(-88.3220000001 0 -4.14307622781e-11)
(-88.3219999998 0 5.07434806528e-11)
(-88.3220000001 0 -1.25380168537e-11)
(-88.322 0 -1.46254662676e-11)
(-88.322 0 -5.45210102704e-11)
(-88.322 0 -3.33240806048e-11)
(-88.322 0 -1.78493480524e-11)
(-88.322 0 -1.75331701251e-11)
(-88.322 0 2.18757904687e-11)
(-88.3219999998 0 -8.14722488503e-11)
(-88.3219999999 0 1.06522683166e-10)
(-88.3220000005 0 -4.77709724391e-11)
(-88.3219999995 0 -1.94525746562e-10)
(-88.3219999994 0 3.14359824025e-10)
(-88.3220000011 0 1.73690818524e-10)
(-88.3220000006 0 -2.13637524426e-10)
(-88.3219999999 0 -3.64370200553e-11)
(-88.3219999998 0 -1.62946240246e-10)
(-88.3220000001 0 -3.82145520587e-11)
(-88.3219999992 0 -2.83518098355e-10)
(-88.3219999985 0 3.22780200835e-10)
(-88.3219999998 0 3.7958798911e-10)
(-88.3220000008 0 3.52580295695e-10)
(-88.3220000014 0 -4.53248081356e-12)
(-88.322 0 -2.95795578214e-10)
(-88.3219999999 0 -8.2064650556e-11)
(-88.3220000001 0 1.0785086073e-10)
(-88.3219999997 0 8.94165756224e-12)
(-88.322 0 2.17418942519e-10)
(-88.3220000002 0 -1.1319013071e-10)
(-88.3219999996 0 4.16719729306e-11)
(-88.3220000005 0 5.4653723365e-12)
(-88.3220000012 0 -4.68910739973e-12)
(-88.3220000008 0 -5.55910160869e-11)
(-88.3219999983 0 6.18939533298e-11)
(-88.3219999974 0 -2.20710375762e-10)
(-88.3220000019 0 -2.2634272297e-11)
(-88.3220000024 0 -1.71702587576e-10)
(-88.3219999981 0 -2.90333641924e-10)
(-88.3219999984 0 2.79616686458e-10)
(-88.3219999996 0 2.05215510834e-10)
(-88.3220000015 0 1.46372700431e-10)
(-88.3220000021 0 -3.17311958692e-10)
(-88.3219999988 0 -1.83207701781e-10)
(-88.3219999985 0 -4.7592884947e-11)
(-88.3220000013 0 1.54801067884e-12)
(-88.3220000016 0 1.91812495753e-10)
(-88.3219999988 0 -6.68646329683e-11)
(-88.3219999986 0 4.1937332058e-10)
(-88.322 0 -2.04397575926e-10)
(-88.3220000001 0 3.10761549524e-10)
(-88.3219999999 0 2.83229972499e-10)
(-88.3220000005 0 -5.15203728268e-11)
(-88.322 0 2.65256795427e-11)
(-88.3219999999 0 6.35072151347e-11)
(-88.3220000004 0 1.47533073112e-11)
(-88.3219999998 0 -2.10651375636e-10)
(-88.3220000003 0 -4.41084982739e-10)
(-88.322 0 5.23758701104e-10)
(-88.3219999996 0 6.06353326508e-10)
(-88.3220000001 0 1.00587894487e-12)
(-88.322 0 2.98457181849e-10)
(-88.322 0 -1.72320756641e-10)
(-88.322 0 -1.96339877757e-10)
(-88.322 0 1.24153125974e-10)
(-88.322 0 -7.32329908965e-11)
(-88.322 0 5.57963675115e-11)
(-88.322 0 -1.79698631132e-10)
(-88.322 0 -3.89031677847e-10)
(-88.322 0 -3.25211550916e-10)
(-88.322 0 -3.1651289821e-10)
(-88.322 0 -3.71895642635e-10)
(-88.322 0 -3.5871597908e-10)
(-88.322 0 -9.57118605017e-11)
(-88.322 0 2.97708509424e-10)
(-88.3220000001 0 -8.17984691606e-11)
(-88.3219999998 0 5.42134702643e-11)
(-88.322 0 -9.64449238827e-11)
(-88.3220000001 0 -2.69237856013e-10)
(-88.322 0 4.09640457489e-10)
(-88.322 0 -1.62223426351e-10)
(-88.3220000001 0 -1.75426624759e-10)
(-88.322 0 -3.85533709181e-10)
(-88.3219999999 0 8.26897750687e-10)
(-88.322 0 3.13204657716e-10)
(-88.3220000001 0 -7.89202416065e-10)
(-88.3220000001 0 -1.05009100888e-09)
(-88.322 0 -4.33392116558e-10)
(-88.3219999994 0 6.51438515635e-11)
(-88.3219999989 0 8.70458841658e-11)
(-88.322 0 -2.65070965327e-11)
(-88.322 0 1.78816341549e-10)
(-88.3219999999 0 -1.37576890874e-10)
(-88.322 0 1.2951956391e-10)
(-88.322 0 -3.66090279749e-11)
(-88.322 0 -8.54999655012e-11)
(-88.3220000001 0 2.17109824822e-10)
(-88.3219999999 0 5.23593472356e-10)
(-88.3220000003 0 6.38636371736e-10)
(-88.3220000001 0 -2.59100857151e-10)
(-88.322 0 -5.61501807008e-10)
(-88.3220000005 0 5.28064783042e-10)
(-88.3219999989 0 5.48978978687e-10)
(-88.3219999989 0 -3.57180608089e-10)
(-88.3220000001 0 -2.67633669395e-10)
(-88.3220000009 0 -5.47657101819e-10)
(-88.3220000008 0 4.43794083572e-10)
(-88.3219999994 0 4.97723078865e-10)
(-88.3219999993 0 -2.24544861838e-10)
(-88.3219999998 0 -2.19017924366e-10)
(-88.3220000004 0 5.36372357636e-10)
(-88.3219999994 0 5.39759229184e-10)
(-88.3220000003 0 -8.27307664736e-11)
(-88.322 0 -1.50485314956e-10)
(-88.3219999989 0 -8.54580700785e-11)
(-88.3220000007 0 8.19129551126e-11)
(-88.3220000007 0 -5.81203493624e-11)
(-88.3219999999 0 3.8843801555e-11)
(-88.322 0 8.78092311764e-11)
(-88.3220000003 0 -1.14828668496e-11)
(-88.322 0 -4.52510103296e-10)
(-88.322 0 4.26866400662e-10)
(-88.3220000001 0 6.0180353363e-10)
(-88.322 0 -3.75970898715e-10)
(-88.3220000003 0 -6.645823428e-10)
(-88.322 0 8.00200193075e-10)
(-88.3219999997 0 3.93571577957e-10)
(-88.322 0 -3.61840352955e-10)
(-88.322 0 -4.27631837334e-10)
(-88.322 0 1.74262545771e-10)
(-88.3220000004 0 -2.69944854891e-10)
(-88.322000001 0 -6.13476541352e-11)
(-88.3220000003 0 -3.27558419118e-10)
(-88.3219999998 0 5.86223189977e-11)
(-88.3220000001 0 -5.73350545611e-10)
(-88.3219999999 0 -5.87289548766e-10)
(-88.3219999995 0 4.72649076483e-10)
(-88.3219999986 0 2.0119382699e-11)
(-88.322 0 -3.71804384504e-10)
(-88.322000001 0 1.69825699258e-10)
(-88.3219999995 0 -4.30686417936e-10)
(-88.322 0 3.95649153136e-10)
(-88.322 0 6.1211174606e-11)
(-88.3220000004 0 -3.36481919826e-10)
(-88.3220000012 0 -3.55877637446e-10)
(-88.3220000003 0 -3.76379491012e-10)
(-88.3219999982 0 -1.63516210927e-10)
(-88.3219999979 0 -1.77009163222e-10)
(-88.3220000018 0 -1.51428330253e-10)
(-88.3220000026 0 8.16336341962e-11)
(-88.322 0 5.23259026215e-11)
(-88.3219999999 0 7.21883519408e-11)
(-88.322 0 6.06829770968e-10)
(-88.322 0 1.80124100498e-10)
(-88.322 0 -3.51216209691e-11)
(-88.322 0 1.52224870593e-10)
(-88.322 0 -1.79838850279e-10)
(-88.322 0 3.46423644556e-11)
(-88.322 0 1.22517880479e-11)
(-88.322 0 3.56595676397e-11)
(-88.322 0 2.2900325253e-11)
(-88.322 0 9.01148005175e-11)
(-88.3219999998 0 -2.91087531073e-11)
(-88.3219999998 0 1.5959839432e-10)
(-88.3220000004 0 -9.99848368068e-12)
(-88.3220000001 0 3.60295581685e-10)
(-88.3219999998 0 3.29195620095e-10)
(-88.322 0 -2.67710710617e-10)
(-88.322 0 -1.96680320245e-10)
(-88.322 0 -2.71404797071e-10)
(-88.322 0 4.67031206542e-10)
(-88.322 0 4.27565481728e-10)
(-88.322 0 -4.87144421879e-10)
(-88.3219999999 0 -5.09955994939e-10)
(-88.322 0 3.13245075754e-10)
(-88.322 0 4.85627144039e-10)
(-88.322 0 -1.93738373616e-10)
(-88.322 0 5.57921107006e-10)
(-88.3219999996 0 -1.95255091027e-10)
(-88.3219999998 0 3.33945084545e-11)
(-88.3220000005 0 -1.04423026902e-10)
(-88.3219999997 0 -2.50790041549e-10)
(-88.3219999999 0 8.29305784308e-11)
(-88.3220000014 0 -8.37263309119e-11)
(-88.3219999989 0 5.9324902172e-12)
(-88.3219999983 0 -7.89614907746e-11)
(-88.3220000016 0 4.17479489038e-11)
(-88.3220000021 0 9.03019449344e-11)
(-88.3219999979 0 -6.94240577248e-11)
(-88.3219999979 0 3.49219252564e-10)
(-88.3220000022 0 -1.91499140027e-11)
(-88.3220000016 0 3.52633332154e-11)
(-88.3219999989 0 -6.37623572106e-11)
(-88.3219999998 0 -5.00351031889e-12)
(-88.3220000004 0 -7.45355622937e-11)
(-88.3220000001 0 1.81541194637e-10)
(-88.3219999997 0 4.1884872138e-10)
(-88.3220000005 0 3.22928488814e-10)
(-88.3220000013 0 3.36652009987e-10)
(-88.3219999979 0 2.58519733671e-10)
(-88.321999999 0 4.95921774044e-10)
(-88.3220000016 0 1.98881057122e-10)
(-88.3219999998 0 -3.51697418676e-10)
(-88.3220000003 0 1.08694600721e-10)
(-88.3219999993 0 -1.82285826152e-10)
(-88.3219999991 0 2.44856309088e-10)
(-88.3220000015 0 5.44899923616e-10)
(-88.3220000007 0 -5.24262575413e-10)
(-88.3220000001 0 -1.49204075272e-10)
(-88.3219999997 0 4.22662526313e-10)
(-88.3219999996 0 6.44575067988e-11)
(-88.3219999998 0 -4.45892264896e-10)
(-88.3219999995 0 -9.9996215602e-10)
(-88.3219999998 0 8.20963421945e-10)
(-88.3220000001 0 9.27438243027e-10)
(-88.322 0 7.1291296533e-10)
(-88.3220000005 0 -3.0350847394e-10)
(-88.3220000001 0 -1.10166925804e-10)
(-88.322 0 2.07941661116e-10)
(-88.3220000004 0 -3.5070373162e-11)
(-88.322 0 -5.18876044431e-11)
(-88.3219999996 0 -1.13373507188e-11)
(-88.322 0 3.63400848912e-12)
(-88.322 0 2.85103267808e-11)
(-88.322 0 1.95389687903e-11)
(-88.322 0 -4.62751554103e-12)
(-88.322 0 6.02190992095e-11)
(-88.3220000001 0 -2.42786057794e-10)
(-88.3219999997 0 -2.56838546292e-10)
(-88.3219999999 0 3.0610436677e-11)
(-88.3220000002 0 -2.41323411135e-11)
(-88.322 0 3.2221937393e-11)
(-88.3220000001 0 1.39646972326e-10)
(-88.3219999996 0 1.39320260276e-10)
(-88.3219999995 0 -2.10818930698e-11)
(-88.3220000014 0 1.76286249867e-12)
(-88.3220000012 0 2.62557732083e-11)
(-88.3219999982 0 2.23236017504e-11)
(-88.3219999985 0 7.04703064422e-11)
(-88.3220000004 0 -1.24959465555e-10)
(-88.3220000001 0 1.19151064436e-10)
(-88.3220000001 0 3.57702709726e-12)
(-88.3219999999 0 2.41136678759e-10)
(-88.3220000005 0 2.78606305255e-10)
(-88.3220000012 0 3.47754154452e-10)
(-88.3219999995 0 -2.46866852494e-11)
(-88.3219999996 0 1.51610591611e-10)
(-88.3220000004 0 3.78644809617e-10)
(-88.322 0 -3.00464244677e-11)
(-88.322 0 -5.19155067724e-10)
(-88.3219999999 0 -7.34823945983e-10)
(-88.3220000002 0 1.71202762092e-10)
(-88.3219999997 0 8.28928719383e-10)
(-88.3219999999 0 -1.03805252667e-09)
(-88.3220000003 0 -2.79986115099e-10)
(-88.322 0 1.73852522477e-10)
(-88.322 0 3.74868725204e-10)
(-88.322 0 -1.47980839792e-10)
(-88.322 0 2.35797817434e-10)
(-88.322 0 6.64257562899e-11)
(-88.322 0 3.0147743443e-10)
(-88.322 0 -4.55496518095e-11)
(-88.3220000001 0 5.71312692447e-10)
(-88.3219999997 0 5.07014262283e-10)
(-88.3219999997 0 -4.11105499054e-10)
(-88.3220000003 0 -1.18642865994e-10)
(-88.3220000001 0 2.81405913718e-10)
(-88.3220000007 0 -1.06495571949e-11)
(-88.3219999993 0 3.46301998727e-10)
(-88.3219999986 0 -3.97456210456e-10)
(-88.3220000015 0 -6.47761711868e-11)
(-88.3220000017 0 -2.31284667685e-10)
(-88.3219999992 0 1.44489808374e-10)
(-88.3219999999 0 1.16676822278e-10)
(-88.3219999998 0 -3.02380375138e-10)
(-88.322 0 7.52152278443e-10)
(-88.3219999993 0 6.21432381305e-10)
(-88.3219999987 0 3.82056212952e-10)
(-88.3220000002 0 1.59894685175e-10)
(-88.3220000004 0 -7.36605959648e-12)
(-88.3220000002 0 -1.01155250474e-10)
(-88.321999999 0 -2.03427380252e-10)
(-88.322 0 3.85709090688e-10)
(-88.3220000004 0 6.0044337308e-10)
(-88.322 0 -1.61707105533e-11)
(-88.3219999999 0 4.24560932661e-10)
(-88.322 0 3.29468848642e-10)
(-88.322 0 -4.15480002924e-10)
(-88.322 0 1.37878206213e-11)
(-88.3219999999 0 9.00090024511e-11)
(-88.3220000003 0 -3.97434658749e-11)
(-88.3220000003 0 1.697954894e-10)
(-88.3219999999 0 1.73385493233e-10)
(-88.3219999998 0 -4.92297712241e-10)
(-88.3219999998 0 4.91103542709e-10)
(-88.3219999997 0 3.97433690512e-10)
(-88.3219999998 0 5.10253076569e-10)
(-88.3220000003 0 1.15401253041e-10)
(-88.3220000003 0 -6.55318993911e-10)
(-88.322 0 -2.43389542197e-10)
(-88.3219999998 0 8.71746819673e-10)
(-88.3219999999 0 1.06051608815e-09)
(-88.3220000004 0 -6.10149433776e-10)
(-88.3219999999 0 -6.04425040391e-10)
(-88.3219999998 0 -4.32562874554e-10)
(-88.3219999998 0 -5.97217043794e-11)
(-88.3219999991 0 1.13613430338e-10)
(-88.3219999996 0 -4.26191248237e-10)
(-88.3220000012 0 5.02430998963e-10)
(-88.3220000001 0 6.73992582553e-10)
(-88.3219999991 0 -1.02458413524e-10)
(-88.3220000019 0 -3.56552005681e-10)
(-88.3220000007 0 9.18826216309e-11)
(-88.3219999995 0 1.54210177436e-10)
(-88.3220000002 0 1.14763117119e-10)
(-88.321999999 0 -1.14283566182e-10)
(-88.3220000003 0 -6.79901719616e-12)
(-88.3220000001 0 -5.73573982096e-11)
(-88.3219999999 0 4.94745867974e-12)
(-88.3220000003 0 5.12966343927e-11)
(-88.3219999996 0 4.23849762928e-11)
(-88.322 0 -1.94836002808e-11)
(-88.322 0 1.30331871843e-11)
(-88.322 0 8.33293037381e-12)
(-88.322 0 7.537522656e-12)
(-88.322 0 1.26764340812e-11)
(-88.3220000001 0 -7.10938982884e-11)
(-88.3219999998 0 2.80067772341e-10)
(-88.3220000001 0 -1.93705874897e-10)
(-88.3220000002 0 -7.31926279991e-11)
(-88.3219999996 0 -1.56805234e-11)
(-88.3220000002 0 8.36430253153e-11)
(-88.3220000001 0 2.64846554115e-10)
(-88.3219999999 0 -4.19017167239e-10)
(-88.3220000012 0 -4.47664993068e-10)
(-88.3220000002 0 2.99204836825e-10)
(-88.3219999994 0 3.28897913958e-10)
(-88.3220000007 0 4.37433654089e-11)
(-88.3219999984 0 3.89766108522e-10)
(-88.321999998 0 -8.61918518751e-11)
(-88.3220000002 0 4.44057326757e-10)
(-88.3220000007 0 -2.59330902678e-10)
(-88.3220000008 0 -7.62816810574e-11)
(-88.3220000009 0 -2.43200993299e-10)
(-88.3220000004 0 4.64355042905e-10)
(-88.3219999991 0 2.18538744257e-11)
(-88.3219999985 0 -2.58340086368e-10)
(-88.3220000012 0 4.52795538037e-11)
(-88.3220000003 0 2.69850539707e-11)
(-88.3219999989 0 4.80915287949e-11)
(-88.3220000018 0 -8.10588739865e-11)
(-88.3220000007 0 6.01261809609e-11)
(-88.3219999991 0 -1.62390335545e-10)
(-88.3220000002 0 -1.67580541071e-10)
(-88.3219999999 0 4.05042202576e-10)
(-88.3219999997 0 -3.7682622961e-10)
(-88.3220000011 0 -3.39392233593e-10)
(-88.3219999993 0 -6.07405798219e-11)
(-88.3219999984 0 -1.20154704671e-10)
(-88.3219999999 0 3.20892284386e-12)
(-88.3220000008 0 -2.29912125175e-10)
(-88.3220000019 0 -1.1422108729e-10)
(-88.3220000001 0 3.20892053854e-11)
(-88.3219999983 0 -1.49598385923e-12)
(-88.3219999986 0 6.61358944771e-14)
(-88.3220000011 0 -2.89420019931e-11)
(-88.3220000018 0 9.22278359619e-13)
(-88.322 0 3.66357934854e-12)
(-88.321999999 0 -7.48268383553e-11)
(-88.321999999 0 4.58572789476e-11)
(-88.3220000007 0 -3.04581821774e-10)
(-88.3219999996 0 -3.37970938679e-10)
(-88.321999999 0 -5.58866044383e-10)
(-88.3220000007 0 2.7824184455e-10)
(-88.3220000017 0 -4.31207275167e-10)
(-88.322 0 -3.68348899731e-10)
(-88.321999999 0 7.84652183379e-10)
(-88.3219999999 0 1.92838902191e-10)
(-88.3220000004 0 -1.21248543624e-10)
(-88.3220000004 0 -4.31121765956e-10)
(-88.3219999997 0 -1.38405965124e-10)
(-88.3219999999 0 6.06101428831e-10)
(-88.322 0 -1.55845496986e-10)
(-88.3219999999 0 -9.05447905829e-11)
(-88.322 0 4.35017899502e-11)
(-88.322 0 7.90134186069e-11)
(-88.322 0 -1.79465682115e-10)
(-88.322 0 5.9592375129e-11)
(-88.322 0 3.29051452911e-11)
(-88.3220000001 0 8.39890000241e-12)
(-88.3219999996 0 -9.68057440538e-12)
(-88.322 0 -3.2486905998e-11)
(-88.3220000004 0 2.91400637833e-11)
(-88.322 0 -3.30571398627e-11)
(-88.3219999998 0 1.07835111014e-10)
(-88.3220000002 0 -3.88891583563e-11)
(-88.3220000003 0 6.36525620826e-11)
(-88.3219999998 0 -6.91099380379e-11)
(-88.322 0 4.66091665985e-11)
(-88.3220000002 0 3.23899588932e-10)
(-88.3219999998 0 2.77195687676e-11)
(-88.3219999999 0 8.92676146733e-11)
(-88.3220000001 0 4.69344609011e-10)
(-88.3219999999 0 -4.99147100093e-10)
(-88.3219999997 0 -4.46822223008e-10)
(-88.3219999997 0 5.857145491e-11)
(-88.3220000002 0 2.41053300614e-10)
(-88.3220000004 0 -9.76765426494e-11)
(-88.322 0 8.85490393012e-11)
(-88.3220000004 0 1.9651732051e-10)
(-88.3219999999 0 -3.63566430613e-10)
(-88.3219999999 0 -6.2510115404e-10)
(-88.322 0 1.95260361288e-10)
(-88.3220000001 0 -4.34636118258e-10)
(-88.3219999999 0 -3.51692265186e-10)
(-88.3220000001 0 4.10620650098e-10)
(-88.3220000005 0 -2.59183995353e-11)
(-88.3219999986 0 -1.1800529069e-10)
(-88.3220000007 0 7.13768896617e-11)
(-88.3220000019 0 -1.63257214061e-10)
(-88.3219999993 0 -1.0680731979e-10)
(-88.3219999993 0 3.63939189839e-10)
(-88.3219999996 0 -4.89341565833e-10)
(-88.3219999999 0 -3.54708005254e-10)
(-88.3219999999 0 -4.94938574441e-10)
(-88.3219999998 0 -5.3984287305e-12)
(-88.3220000001 0 4.40924909453e-10)
(-88.322 0 2.81701806927e-11)
(-88.322 0 -3.74806974795e-10)
(-88.3219999999 0 -6.7845265049e-10)
(-88.3220000003 0 1.89038444257e-10)
(-88.322 0 2.0127378064e-10)
(-88.3219999997 0 2.19347712665e-10)
(-88.3220000003 0 -2.71028630382e-10)
(-88.3219999998 0 -2.84907160843e-10)
(-88.3220000001 0 5.68037709836e-11)
(-88.322 0 -4.79505803836e-10)
(-88.322 0 -4.46932566992e-10)
(-88.3220000003 0 -9.84613244193e-11)
(-88.3219999995 0 4.07103834485e-10)
(-88.3219999997 0 -7.55323684103e-11)
(-88.3220000013 0 -8.67932834077e-11)
(-88.3220000015 0 -1.1015992664e-10)
(-88.321999999 0 -4.86356847914e-11)
(-88.3219999981 0 2.13818733987e-10)
(-88.3220000001 0 -4.28655347048e-11)
(-88.3220000013 0 7.49506637066e-11)
(-88.322 0 -3.23912989847e-11)
(-88.3219999993 0 -2.10055555836e-11)
(-88.3220000005 0 3.73533825682e-11)
(-88.322 0 -4.74544405264e-12)
(-88.3219999996 0 -1.14557510227e-11)
(-88.3220000001 0 -3.71382625776e-11)
(-88.322 0 -2.37788240317e-11)
(-88.3220000002 0 4.3596388171e-11)
(-88.3219999998 0 -1.82907762585e-10)
(-88.3220000001 0 4.48091917142e-11)
(-88.322 0 1.06359593665e-10)
(-88.3219999996 0 -1.49953625791e-10)
(-88.3220000002 0 -1.62730186645e-10)
(-88.322 0 1.01849232516e-10)
(-88.3219999998 0 5.59556252667e-10)
(-88.3220000005 0 5.59945162926e-10)
(-88.3220000003 0 -2.88741048284e-10)
(-88.3219999999 0 -3.39686416535e-10)
(-88.3219999998 0 -2.12141213869e-10)
(-88.3219999996 0 -4.50474731703e-10)
(-88.3219999998 0 1.62378627304e-10)
(-88.3219999992 0 -4.19794625206e-10)
(-88.3219999993 0 3.51770118731e-10)
(-88.3220000012 0 -1.66518190824e-10)
(-88.3220000004 0 1.3677542333e-10)
(-88.3220000002 0 -2.76313764785e-10)
(-88.3220000001 0 7.55119682379e-12)
(-88.322 0 -4.36342160549e-11)
(-88.322 0 -1.20733304807e-12)
(-88.322 0 -7.18992879802e-11)
(-88.322 0 8.43984768143e-11)
(-88.322 0 3.84593343692e-11)
(-88.322 0 -9.13414990696e-11)
(-88.3220000001 0 1.56141002524e-10)
(-88.322 0 1.55744602962e-10)
(-88.322 0 -4.66203567523e-10)
(-88.322 0 5.45343374253e-10)
(-88.322 0 5.37383193414e-10)
(-88.322 0 8.25727131249e-11)
(-88.322 0 1.20103287024e-10)
(-88.322 0 -2.97954561641e-11)
(-88.322 0 8.19494082686e-11)
(-88.322 0 -1.48322078511e-11)
(-88.322 0 3.10156976348e-12)
(-88.322 0 7.81485572049e-12)
(-88.322 0 -2.31248276443e-11)
(-88.322 0 1.50269610729e-11)
(-88.322 0 -1.06720304686e-11)
(-88.322 0 1.4465282928e-10)
(-88.322 0 -5.60528274819e-11)
(-88.322 0 -4.31198233391e-11)
(-88.322 0 7.27977759245e-11)
(-88.322 0 -2.64912357854e-11)
(-88.322 0 3.77472839069e-11)
(-88.322 0 -1.80137969159e-10)
(-88.322 0 4.42167986651e-11)
(-88.322 0 -7.99695795413e-11)
(-88.322 0 -3.70581117978e-11)
(-88.322 0 2.06170110167e-10)
(-88.3220000003 0 -1.47805172611e-10)
(-88.3219999999 0 1.55753611335e-10)
(-88.3219999997 0 -1.83343044741e-10)
(-88.3220000001 0 -7.24395797147e-10)
(-88.322 0 1.60730825583e-10)
(-88.322 0 3.01572082427e-10)
(-88.322 0 -2.12150263926e-11)
(-88.322 0 -7.9269089685e-11)
(-88.322 0 1.84829642247e-10)
(-88.322 0 -8.5579649382e-11)
(-88.322 0 -3.06881187808e-11)
(-88.322 0 -2.23453040096e-11)
(-88.322 0 -5.74577969167e-11)
(-88.322 0 1.36246364981e-10)
(-88.3219999998 0 -1.36084720685e-11)
(-88.3220000003 0 1.9024135117e-10)
(-88.3220000003 0 -5.04748171252e-11)
(-88.3219999996 0 -7.2076438568e-11)
(-88.3219999989 0 -1.58122215953e-10)
(-88.321999999 0 6.70407382553e-11)
(-88.3220000018 0 1.25544001671e-10)
(-88.322000002 0 -2.42745710893e-10)
(-88.3219999996 0 -1.03740125283e-10)
(-88.322 0 -5.71271491543e-11)
(-88.3219999994 0 -1.05380994178e-10)
(-88.3219999998 0 4.69344437946e-11)
(-88.3219999993 0 5.77423871522e-11)
(-88.3219999992 0 -1.0003216997e-09)
(-88.3220000005 0 -8.24966863122e-10)
(-88.322 0 -2.34440591327e-10)
(-88.3219999996 0 1.22405297099e-10)
(-88.3220000001 0 1.20854455224e-10)
(-88.3219999999 0 -1.54985815231e-10)
(-88.322 0 -4.94263803288e-11)
(-88.3219999997 0 6.73583313713e-11)
(-88.3219999999 0 5.57860722951e-11)
(-88.3220000003 0 -1.22883394767e-10)
(-88.322 0 -1.35362366067e-10)
(-88.322 0 -3.48474653987e-11)
(-88.322 0 -6.3111054669e-11)
(-88.322 0 5.17017505383e-12)
(-88.3219999999 0 -2.51358324919e-11)
(-88.3220000002 0 -7.52361748499e-12)
(-88.3220000001 0 -2.33612566711e-11)
(-88.3219999998 0 -3.05843296427e-11)
(-88.322 0 -3.90793390316e-11)
(-88.322 0 -3.34753218518e-11)
(-88.322 0 -5.72327120773e-12)
(-88.322 0 4.74814380759e-11)
(-88.322 0 -1.6666185874e-10)
(-88.3219999999 0 -6.97288631483e-11)
(-88.3219999999 0 4.81305810524e-10)
(-88.322 0 3.37313853436e-10)
(-88.3220000001 0 -4.57075218892e-10)
(-88.3220000001 0 -3.48124905975e-10)
(-88.322 0 -1.14848332375e-10)
(-88.3219999998 0 6.56898489812e-11)
(-88.3220000002 0 -1.59782273923e-10)
(-88.3220000003 0 1.20667899089e-10)
(-88.322 0 -1.47246923439e-10)
(-88.3220000001 0 -4.01250224859e-10)
(-88.3219999997 0 -3.08740910478e-10)
(-88.3219999991 0 2.33761520038e-10)
(-88.3220000015 0 -4.15003648202e-10)
(-88.3220000016 0 -4.55547496881e-10)
(-88.3219999991 0 -4.05496742682e-10)
(-88.3219999999 0 4.3632829998e-10)
(-88.3219999994 0 3.33988888497e-10)
(-88.3219999991 0 -3.66763137668e-10)
(-88.3220000002 0 -2.4439263753e-10)
(-88.322 0 5.1201654024e-10)
(-88.322 0 1.11760313044e-10)
(-88.322 0 -3.34853827903e-10)
(-88.322 0 -5.45873581234e-10)
(-88.322 0 2.38650416059e-10)
(-88.3220000001 0 -2.38297152093e-10)
(-88.3219999999 0 -7.9925508454e-11)
(-88.3219999997 0 -5.07047345992e-10)
(-88.322 0 4.23876442437e-10)
(-88.3220000001 0 -1.18133587623e-10)
(-88.322 0 6.20706049387e-11)
(-88.3220000005 0 2.60676516423e-10)
(-88.3219999998 0 -3.88826018356e-10)
(-88.3219999993 0 -9.1382310499e-10)
(-88.3220000011 0 -1.08944100108e-09)
(-88.3220000007 0 -3.99422911236e-10)
(-88.3219999995 0 9.66451620527e-10)
(-88.3219999998 0 5.61614345664e-10)
(-88.3219999993 0 -7.45707303002e-11)
(-88.3219999995 0 -6.71373314218e-10)
(-88.3220000013 0 7.19302445863e-10)
(-88.322000001 0 -2.82540671386e-11)
(-88.3219999996 0 -1.75733921058e-10)
(-88.3219999995 0 -2.55651223671e-11)
(-88.322 0 1.06284261573e-10)
(-88.3220000006 0 5.59288464036e-11)
(-88.3220000003 0 2.26548192486e-10)
(-88.3219999996 0 -2.19826640128e-10)
(-88.3219999998 0 1.70711815404e-10)
(-88.3220000004 0 -2.58499082078e-10)
(-88.3220000003 0 2.06042790221e-10)
(-88.3219999998 0 2.44494785839e-10)
(-88.322 0 -2.08107486429e-10)
(-88.3219999999 0 -4.05996070321e-10)
(-88.322 0 -1.39201749692e-10)
(-88.322 0 -4.55012987598e-10)
(-88.322 0 -4.42500705256e-10)
(-88.322 0 -1.60027703325e-10)
(-88.322 0 7.51954359488e-11)
(-88.322 0 3.46934717788e-11)
(-88.322 0 9.47602522595e-11)
(-88.3219999999 0 -3.37738358421e-10)
(-88.3220000003 0 -6.89961304823e-10)
(-88.3220000002 0 3.15796452947e-10)
(-88.3219999987 0 3.14257651722e-10)
(-88.3219999992 0 7.47091531076e-10)
(-88.322000002 0 -4.55163428849e-10)
(-88.3220000013 0 -4.2447650978e-10)
(-88.3219999993 0 2.9339025564e-10)
(-88.3219999992 0 2.8224511786e-10)
(-88.3220000001 0 2.79703777216e-10)
(-88.322 0 1.04138197477e-10)
(-88.3220000001 0 3.02342077438e-10)
(-88.322000001 0 1.02516570069e-10)
(-88.3220000002 0 3.18407490416e-11)
(-88.3219999987 0 9.35678694955e-11)
(-88.3220000002 0 -1.312925563e-10)
(-88.3220000013 0 -3.83897594248e-10)
(-88.3220000003 0 5.2160161725e-10)
(-88.321999998 0 7.57746553497e-10)
(-88.3219999982 0 4.72320375357e-10)
(-88.3220000016 0 7.19635363007e-10)
(-88.3220000011 0 -4.74301342258e-10)
(-88.3219999984 0 -3.30169004178e-11)
(-88.3219999993 0 2.01176942582e-11)
(-88.3220000017 0 -5.85852172448e-11)
(-88.3220000013 0 5.51007791578e-11)
(-88.3219999988 0 -8.93817588722e-11)
(-88.3219999994 0 4.12089238103e-11)
(-88.3220000006 0 -1.13363171228e-10)
(-88.3220000005 0 -2.84567610845e-10)
(-88.3219999989 0 2.28445471104e-10)
(-88.321999999 0 3.19616982944e-10)
(-88.3220000011 0 4.13532062522e-10)
(-88.3219999995 0 -3.32984116767e-10)
(-88.3220000004 0 -3.38498573102e-10)
(-88.3220000011 0 6.60484263981e-10)
(-88.3220000003 0 9.13550287075e-11)
(-88.3220000008 0 1.10097050102e-10)
(-88.321999998 0 3.459104683e-10)
(-88.3219999977 0 5.35261733828e-10)
(-88.3220000021 0 6.2538431055e-10)
(-88.3220000017 0 -2.28609256721e-10)
(-88.3219999981 0 -3.60545070063e-10)
(-88.321999998 0 -1.87413205764e-10)
(-88.322000001 0 4.31944007219e-10)
(-88.3220000006 0 3.857085025e-10)
(-88.3219999994 0 2.87606882954e-10)
(-88.322 0 -1.75361607559e-10)
(-88.3219999998 0 -2.07335258827e-10)
(-88.3220000004 0 1.2682157899e-10)
(-88.322 0 -2.50942778812e-11)
(-88.3219999999 0 -6.00453856299e-11)
(-88.3219999999 0 -1.05122261249e-10)
(-88.3219999993 0 1.15816148668e-10)
(-88.3220000008 0 9.44534016874e-11)
(-88.3220000013 0 3.59518587983e-11)
(-88.3219999998 0 -3.26240233031e-11)
(-88.322 0 -2.90805794738e-10)
(-88.3220000005 0 -3.03563496883e-11)
(-88.3219999996 0 -7.97268217789e-11)
(-88.3219999991 0 -9.88536843884e-11)
(-88.3219999995 0 7.13425736853e-11)
(-88.322 0 -9.91416554572e-11)
(-88.3220000007 0 -1.07193790729e-11)
(-88.3220000016 0 1.19905071199e-12)
(-88.3219999988 0 -6.74433844062e-11)
(-88.321999998 0 1.88598564805e-10)
(-88.321999999 0 5.76393539735e-12)
(-88.3220000015 0 -3.42399912075e-10)
(-88.3220000024 0 -2.24736159328e-10)
(-88.3219999987 0 3.22257537357e-10)
(-88.3219999986 0 4.47902804821e-10)
(-88.322 0 1.18099683218e-10)
(-88.3220000001 0 -4.7146410003e-11)
(-88.3220000001 0 1.64026912861e-10)
(-88.3220000003 0 -8.7980340771e-11)
(-88.3220000005 0 1.58083588261e-10)
(-88.3220000001 0 4.03109627794e-10)
(-88.322 0 3.08206379078e-10)
(-88.3219999999 0 -2.29582604389e-10)
(-88.3220000003 0 5.06593704113e-10)
(-88.3219999995 0 2.80341453767e-10)
(-88.3219999991 0 6.09470919618e-10)
(-88.322 0 -4.95037818319e-10)
(-88.3220000013 0 -3.32030298705e-10)
(-88.3220000006 0 5.11022088192e-10)
(-88.3219999993 0 2.15250859337e-10)
(-88.322 0 -5.15997901459e-10)
(-88.322 0 -1.04404064783e-10)
(-88.3220000001 0 3.19832235608e-10)
(-88.322 0 5.6913511367e-10)
(-88.322 0 -3.86261813379e-10)
(-88.3220000008 0 2.26553857943e-10)
(-88.3219999993 0 5.09461355817e-11)
(-88.3219999985 0 5.15513644922e-10)
(-88.3219999996 0 -4.49284154528e-10)
(-88.3220000015 0 2.47864044024e-11)
(-88.3220000016 0 1.3768532153e-10)
(-88.3219999985 0 -5.16529443931e-10)
(-88.321999999 0 1.11595088527e-10)
(-88.3220000004 0 7.35135796575e-10)
(-88.3220000005 0 7.06464306606e-10)
(-88.3219999999 0 4.30922632801e-10)
(-88.3219999991 0 -4.23148346801e-10)
(-88.3220000012 0 -5.80133870398e-10)
(-88.3220000012 0 4.91478005245e-10)
(-88.3219999995 0 4.62700649742e-10)
(-88.3219999997 0 -3.76636526656e-10)
(-88.322 0 -4.9979687679e-10)
(-88.3219999999 0 1.26405910937e-10)
(-88.322 0 -1.6945906364e-10)
(-88.322 0 -3.60085222705e-11)
(-88.322 0 1.10236008754e-10)
(-88.322 0 -1.92148257777e-10)
(-88.322 0 1.81265040113e-10)
(-88.322 0 -9.98087764975e-11)
(-88.322 0 1.52203470191e-10)
(-88.322 0 -2.08935474259e-10)
(-88.322 0 -1.25599043389e-10)
(-88.3220000002 0 -1.95536328187e-10)
(-88.3220000005 0 1.62732922645e-11)
(-88.322 0 3.35750818419e-10)
(-88.3219999996 0 1.71811627223e-10)
(-88.3220000001 0 -1.28947861504e-10)
(-88.3219999998 0 -2.67045446824e-10)
(-88.322 0 1.2545526237e-10)
(-88.3220000001 0 1.74527194265e-10)
(-88.3219999997 0 -2.062945732e-10)
(-88.322 0 3.75164512275e-10)
(-88.322 0 6.8441185484e-10)
(-88.3220000001 0 -2.96577172204e-10)
(-88.3219999997 0 -3.24846390707e-10)
(-88.3219999997 0 -7.67473453506e-10)
(-88.3220000005 0 3.75931741551e-10)
(-88.322 0 3.90085984571e-10)
(-88.3219999998 0 -3.16978959122e-10)
(-88.3220000001 0 -2.86621412358e-10)
(-88.322 0 -3.17262835742e-10)
(-88.322 0 -2.03859048312e-10)
(-88.322 0 -2.1647189224e-10)
(-88.322 0 -1.05901754585e-10)
(-88.322 0 1.04758815827e-10)
(-88.322 0 1.15170471784e-10)
(-88.3219999997 0 -1.44729672527e-10)
(-88.3220000003 0 3.26303973644e-10)
(-88.3220000002 0 -2.98243934536e-10)
(-88.3219999996 0 -6.48105966521e-10)
(-88.322 0 -5.181219734e-10)
(-88.3219999998 0 -1.17550730726e-10)
(-88.3220000001 0 -7.55296518875e-11)
(-88.3220000005 0 -4.50066127174e-10)
(-88.3219999999 0 2.31354928234e-10)
(-88.322 0 3.36082909882e-10)
(-88.322 0 -3.69367027963e-10)
(-88.3220000003 0 4.89900640689e-11)
(-88.3220000001 0 -4.97890534377e-10)
(-88.3219999997 0 -4.38112873582e-10)
(-88.322 0 1.20474182981e-10)
(-88.3219999999 0 -7.5068435672e-10)
(-88.322 0 -4.4659868095e-10)
(-88.3219999999 0 -4.53807826732e-10)
(-88.3220000006 0 2.19882338816e-10)
(-88.3220000006 0 2.9209745949e-10)
(-88.3219999987 0 -5.31067384628e-10)
(-88.3219999991 0 -1.01629732403e-10)
(-88.3220000014 0 -4.66516813074e-10)
(-88.3220000003 0 2.61728340074e-10)
(-88.3219999998 0 -4.43447497057e-10)
(-88.3220000003 0 -8.53923333821e-10)
(-88.3219999997 0 -2.0216390815e-10)
(-88.3219999999 0 8.00470663038e-11)
(-88.322 0 3.13234532314e-10)