/*--------------------------------*- C++ -*----------------------------------*\
  =========                 |
  \\      /  F ield         | OpenFOAM: The Open Source CFD Toolbox
   \\    /   O peration     | Website:  https://openfoam.org
    \\  /    A nd           | Version:  6
     \\/     M anipulation  |
\*---------------------------------------------------------------------------*/
FoamFile
{
    version     2.0;
    format      ascii;
    class       volVectorField;
    location    "4.67e-05";
    object      U;
}
// * * * * * * * * * * * * * * * * * * * * * * * * * * * * * * * * * * * * * //

dimensions      [0 1 -1 0 0 0 0];

internalField   nonuniform List<vector> 
8192
(
(-88.322 0 -2.77068388336e-10)
(-88.3219999996 0 -6.92966712604e-11)
(-88.3220000001 0 -6.75500332804e-11)
(-88.3220000003 0 -2.42178010066e-10)
(-88.3219999995 0 -6.1538425727e-11)
(-88.3219999997 0 1.59240833223e-11)
(-88.3220000003 0 -2.09498990494e-12)
(-88.322 0 8.53945911445e-11)
(-88.322 0 -2.436720184e-10)
(-88.322 0 -5.58696546636e-10)
(-88.3219999999 0 -6.7766876997e-10)
(-88.322 0 3.49526765852e-10)
(-88.3220000002 0 6.43128369777e-10)
(-88.322 0 -7.10111218245e-10)
(-88.3219999999 0 -6.09332689075e-10)
(-88.3219999999 0 3.38342980997e-10)
(-88.3219999998 0 2.57445192476e-10)
(-88.3219999999 0 5.99557215722e-10)
(-88.3220000002 0 -4.14049728239e-10)
(-88.322 0 -5.32367321644e-10)
(-88.3219999997 0 2.58686669118e-10)
(-88.3220000003 0 3.69184601187e-10)
(-88.3220000003 0 -5.56651517034e-10)
(-88.3219999998 0 -5.4237153656e-10)
(-88.322 0 1.5594768999e-10)
(-88.3219999999 0 1.61880800859e-10)
(-88.3219999999 0 2.02382452351e-10)
(-88.3219999999 0 1.70307584598e-10)
(-88.3220000002 0 2.80824883299e-10)
(-88.3220000002 0 -1.41588601118e-10)
(-88.3219999999 0 1.99947875377e-10)
(-88.3219999997 0 -3.63824618921e-11)
(-88.321999999 0 1.13419980332e-10)
(-88.3220000017 0 5.11798895675e-10)
(-88.3220000024 0 -7.78014866978e-10)
(-88.3219999988 0 -6.02156278266e-10)
(-88.3219999996 0 -1.87408144393e-11)
(-88.3219999996 0 -5.3851004174e-10)
(-88.3219999986 0 1.71741356324e-10)
(-88.3220000006 0 1.57644021018e-10)
(-88.3220000001 0 -4.03854245006e-11)
(-88.3219999998 0 4.98809751073e-11)
(-88.3220000001 0 -1.24639803666e-11)
(-88.322 0 -1.45859427917e-11)
(-88.322 0 -5.42755261995e-11)
(-88.322 0 -3.30420737475e-11)
(-88.322 0 -1.77398062282e-11)
(-88.322 0 -1.73693616439e-11)
(-88.322 0 2.13798312457e-11)
(-88.3219999999 0 -8.05400291657e-11)
(-88.3219999999 0 1.05016198587e-10)
(-88.3220000005 0 -4.68366643159e-11)
(-88.3219999995 0 -1.93347372568e-10)
(-88.3219999994 0 3.12166733213e-10)
(-88.3220000011 0 1.72623859127e-10)
(-88.3220000006 0 -2.13881479923e-10)
(-88.3219999999 0 -3.67637385046e-11)
(-88.3219999998 0 -1.62095346494e-10)
(-88.3220000001 0 -3.79638139111e-11)
(-88.3219999992 0 -2.81689519343e-10)
(-88.3219999985 0 3.2134238293e-10)
(-88.3219999998 0 3.785670815e-10)
(-88.3220000008 0 3.51954471821e-10)
(-88.3220000014 0 -2.83960504726e-12)
(-88.322 0 -2.93083431275e-10)
(-88.3219999999 0 -8.15231728764e-11)
(-88.3220000001 0 1.06420381482e-10)
(-88.3219999997 0 8.6608886188e-12)
(-88.322 0 2.14842920057e-10)
(-88.3220000002 0 -1.12662225764e-10)
(-88.3219999996 0 4.10160277417e-11)
(-88.3220000005 0 5.4844386183e-12)
(-88.3220000012 0 -4.47991266542e-12)
(-88.3220000008 0 -5.50809028116e-11)
(-88.3219999983 0 6.12803674521e-11)
(-88.3219999974 0 -2.18823889088e-10)
(-88.3220000019 0 -2.24641519232e-11)
(-88.3220000024 0 -1.70702017942e-10)
(-88.3219999981 0 -2.88548402317e-10)
(-88.3219999984 0 2.77576917334e-10)
(-88.3219999996 0 2.03069206596e-10)
(-88.3220000015 0 1.46025979267e-10)
(-88.3220000021 0 -3.15532800257e-10)
(-88.3219999988 0 -1.82407133987e-10)
(-88.3219999985 0 -4.67723491593e-11)
(-88.3220000013 0 2.89487964989e-12)
(-88.3220000016 0 1.90622588064e-10)
(-88.3219999988 0 -6.6654511116e-11)
(-88.3219999986 0 4.17521226852e-10)
(-88.322 0 -2.05001747505e-10)
(-88.3220000001 0 3.1033072239e-10)
(-88.3219999999 0 2.82042545719e-10)
(-88.3220000004 0 -5.00071022104e-11)
(-88.322 0 2.7455173107e-11)
(-88.3219999999 0 6.25262097328e-11)
(-88.3220000004 0 1.41538099955e-11)
(-88.3219999998 0 -2.08939498137e-10)
(-88.3220000003 0 -4.39211662966e-10)
(-88.322 0 5.20496976286e-10)
(-88.3219999996 0 6.03634416083e-10)
(-88.3220000001 0 6.89482623116e-13)
(-88.322 0 2.97745290784e-10)
(-88.322 0 -1.72515717813e-10)
(-88.322 0 -1.94449485011e-10)
(-88.322 0 1.21923786098e-10)
(-88.322 0 -7.20999920521e-11)
(-88.322 0 5.46789679245e-11)
(-88.322 0 -1.77994237197e-10)
(-88.322 0 -3.88256726288e-10)
(-88.322 0 -3.23981085929e-10)
(-88.322 0 -3.15436845189e-10)
(-88.322 0 -3.69586240051e-10)
(-88.322 0 -3.5728417234e-10)
(-88.322 0 -9.63601196346e-11)
(-88.322 0 2.96842219001e-10)
(-88.3220000001 0 -8.09680390012e-11)
(-88.3219999998 0 5.37357634954e-11)
(-88.322 0 -9.56155231226e-11)
(-88.3220000001 0 -2.67823769713e-10)
(-88.322 0 4.09061457922e-10)
(-88.322 0 -1.6098205039e-10)
(-88.3220000001 0 -1.76158923619e-10)
(-88.322 0 -3.85550917651e-10)
(-88.3219999999 0 8.21750469041e-10)
(-88.322 0 3.11088851645e-10)
(-88.3220000001 0 -7.87754583628e-10)
(-88.3220000001 0 -1.04620496279e-09)
(-88.322 0 -4.32115218575e-10)
(-88.3219999994 0 6.43437436557e-11)
(-88.3219999989 0 8.57843030916e-11)
(-88.322 0 -2.61144364952e-11)
(-88.322 0 1.77211552535e-10)
(-88.3219999999 0 -1.35826228639e-10)
(-88.322 0 1.28165392884e-10)
(-88.322 0 -3.60171039894e-11)
(-88.322 0 -8.40463344604e-11)
(-88.3220000001 0 2.1569707693e-10)
(-88.3219999999 0 5.22406168088e-10)
(-88.3220000003 0 6.35536887212e-10)
(-88.3220000001 0 -2.59052076232e-10)
(-88.322 0 -5.60985984142e-10)
(-88.3220000005 0 5.26908800365e-10)
(-88.3219999989 0 5.48078229828e-10)
(-88.3219999989 0 -3.55266524103e-10)
(-88.3220000001 0 -2.64483745434e-10)
(-88.3220000009 0 -5.44235943561e-10)
(-88.3220000008 0 4.42821906352e-10)
(-88.3219999994 0 4.95159684235e-10)
(-88.3219999993 0 -2.24717856626e-10)
(-88.3219999998 0 -2.19292776804e-10)
(-88.3220000004 0 5.33084118729e-10)
(-88.3219999994 0 5.37644993182e-10)
(-88.3220000003 0 -8.21699209377e-11)
(-88.322 0 -1.49140864697e-10)
(-88.3219999989 0 -8.49738599336e-11)
(-88.3220000007 0 8.07622496592e-11)
(-88.3220000007 0 -5.61947767535e-11)
(-88.3219999999 0 3.75835951146e-11)
(-88.322 0 8.77718861879e-11)
(-88.3220000003 0 -1.18388491263e-11)
(-88.322 0 -4.50405711607e-10)
(-88.322 0 4.24710821198e-10)
(-88.3220000001 0 5.98673798692e-10)
(-88.322 0 -3.72799432738e-10)
(-88.3220000003 0 -6.60960344973e-10)
(-88.322 0 7.96937473673e-10)
(-88.3219999997 0 3.91799734655e-10)
(-88.322 0 -3.6150884827e-10)
(-88.322 0 -4.2569692382e-10)
(-88.322 0 1.72503748176e-10)
(-88.3220000004 0 -2.68761393462e-10)
(-88.322000001 0 -6.09977769303e-11)
(-88.3220000003 0 -3.25492417154e-10)
(-88.3219999998 0 5.83480529598e-11)
(-88.3220000001 0 -5.69964008103e-10)
(-88.3219999999 0 -5.86419984966e-10)
(-88.3219999995 0 4.69507856968e-10)
(-88.3219999986 0 1.98770118552e-11)
(-88.322 0 -3.68813335247e-10)
(-88.322000001 0 1.68907537461e-10)
(-88.3219999995 0 -4.29051553149e-10)
(-88.322 0 3.93854586644e-10)
(-88.322 0 5.99010370299e-11)
(-88.3220000004 0 -3.35317049782e-10)
(-88.3220000012 0 -3.53907638353e-10)
(-88.3220000003 0 -3.7412836899e-10)
(-88.3219999982 0 -1.63133186594e-10)
(-88.3219999979 0 -1.75580327437e-10)
(-88.3220000018 0 -1.50694261279e-10)
(-88.3220000025 0 8.12594958186e-11)
(-88.322 0 5.18269201263e-11)
(-88.3219999999 0 7.14796532873e-11)
(-88.322 0 6.04151974712e-10)
(-88.322 0 1.79190672069e-10)
(-88.322 0 -3.36302359089e-11)
(-88.322 0 1.51279238889e-10)
(-88.322 0 -1.78288243331e-10)
(-88.322 0 3.42661448847e-11)
(-88.322 0 1.21047119161e-11)
(-88.322 0 3.54467799819e-11)
(-88.322 0 2.23709920388e-11)
(-88.322 0 8.95702048119e-11)
(-88.3219999998 0 -2.85798042711e-11)
(-88.3219999998 0 1.58681667942e-10)
(-88.3220000004 0 -9.57898577296e-12)
(-88.3220000001 0 3.5682707661e-10)
(-88.3219999998 0 3.27369387248e-10)
(-88.322 0 -2.65632828877e-10)
(-88.322 0 -1.94650860168e-10)
(-88.322 0 -2.69515531112e-10)
(-88.322 0 4.63491963763e-10)
(-88.322 0 4.25471827596e-10)
(-88.322 0 -4.84774127221e-10)
(-88.3219999999 0 -5.10091658947e-10)
(-88.322 0 3.12267260831e-10)
(-88.322 0 4.83127872329e-10)
(-88.322 0 -1.92489880404e-10)
(-88.322 0 5.55965478478e-10)
(-88.3219999996 0 -1.95111731742e-10)
(-88.3219999998 0 3.23896368907e-11)
(-88.3220000005 0 -1.04501690699e-10)
(-88.3219999997 0 -2.48685596602e-10)
(-88.3219999999 0 8.16500138784e-11)
(-88.3220000014 0 -8.31195761429e-11)
(-88.321999999 0 5.84178856455e-12)
(-88.3219999983 0 -7.80635386074e-11)
(-88.3220000016 0 4.15486817566e-11)
(-88.3220000021 0 8.98259896499e-11)
(-88.3219999979 0 -6.88319850694e-11)
(-88.3219999979 0 3.47467253522e-10)
(-88.3220000022 0 -1.86334852592e-11)
(-88.3220000016 0 3.48122147768e-11)
(-88.3219999989 0 -6.27906018177e-11)
(-88.3219999998 0 -5.21430137489e-12)
(-88.3220000004 0 -7.3325294893e-11)
(-88.3220000001 0 1.79842304883e-10)
(-88.3219999997 0 4.18047398192e-10)
(-88.3220000005 0 3.2168735496e-10)
(-88.3220000013 0 3.35216132038e-10)
(-88.3219999979 0 2.57078139451e-10)
(-88.321999999 0 4.93374898826e-10)
(-88.3220000016 0 1.9885165027e-10)
(-88.3219999998 0 -3.50210191768e-10)
(-88.3220000003 0 1.0852784415e-10)
(-88.3219999993 0 -1.80555389167e-10)
(-88.3219999991 0 2.45127246704e-10)
(-88.3220000015 0 5.4233263844e-10)
(-88.3220000007 0 -5.22381120469e-10)
(-88.3220000001 0 -1.4732677528e-10)
(-88.3219999997 0 4.21408383072e-10)
(-88.3219999997 0 6.54300337707e-11)
(-88.3219999998 0 -4.43470864985e-10)
(-88.3219999995 0 -9.94280723025e-10)
(-88.3219999998 0 8.19278224049e-10)
(-88.3220000001 0 9.22530825816e-10)
(-88.322 0 7.08686632746e-10)
(-88.3220000005 0 -3.02490968391e-10)
(-88.3220000001 0 -1.08888790314e-10)
(-88.322 0 2.05323913261e-10)
(-88.3220000004 0 -3.46032944235e-11)
(-88.322 0 -5.13108070759e-11)
(-88.3219999996 0 -1.13704770519e-11)
(-88.322 0 3.9864776349e-12)
(-88.322 0 2.80669240381e-11)
(-88.322 0 1.96144444605e-11)
(-88.322 0 -4.46164355647e-12)
(-88.322 0 5.95671733827e-11)
(-88.3220000001 0 -2.40463299178e-10)
(-88.3219999997 0 -2.54504260286e-10)
(-88.3219999999 0 2.9709422188e-11)
(-88.3220000002 0 -2.39178173089e-11)
(-88.322 0 3.19027878516e-11)
(-88.3220000001 0 1.38047139014e-10)
(-88.3219999996 0 1.38091927106e-10)
(-88.3219999995 0 -2.07524910312e-11)
(-88.3220000014 0 2.00156213188e-12)
(-88.3220000011 0 2.58865186436e-11)
(-88.3219999982 0 2.17148885821e-11)
(-88.3219999985 0 6.95735699823e-11)
(-88.3220000004 0 -1.24761706939e-10)
(-88.3220000001 0 1.17807635202e-10)
(-88.3220000001 0 3.56756772684e-12)
(-88.3219999999 0 2.3962788076e-10)
(-88.3220000005 0 2.77661828944e-10)
(-88.3220000012 0 3.45874209168e-10)
(-88.3219999995 0 -2.41381247568e-11)
(-88.3219999996 0 1.52033882394e-10)
(-88.3220000004 0 3.76676089934e-10)
(-88.322 0 -2.97617667661e-11)
(-88.322 0 -5.170170669e-10)
(-88.3219999999 0 -7.32380409847e-10)
(-88.3220000002 0 1.68259140291e-10)
(-88.3219999997 0 8.245450325e-10)
(-88.3219999999 0 -1.03357316371e-09)
(-88.3220000003 0 -2.79620953667e-10)
(-88.322 0 1.75055799278e-10)
(-88.322 0 3.73265507013e-10)
(-88.322 0 -1.46599143251e-10)
(-88.322 0 2.35044482225e-10)
(-88.322 0 6.59294076077e-11)
(-88.322 0 2.99534344813e-10)
(-88.322 0 -4.53805217855e-11)
(-88.3220000001 0 5.67949603696e-10)
(-88.3219999997 0 5.06598101078e-10)
(-88.3219999997 0 -4.08553809936e-10)
(-88.3220000003 0 -1.17412428859e-10)
(-88.3220000001 0 2.79348494159e-10)
(-88.3220000006 0 -1.14008362393e-11)
(-88.3219999993 0 3.45037985673e-10)
(-88.3219999986 0 -3.94849734712e-10)
(-88.3220000015 0 -6.39508396592e-11)
(-88.3220000017 0 -2.30400883778e-10)
(-88.3219999992 0 1.42137939964e-10)
(-88.3219999999 0 1.1688321985e-10)
(-88.3219999998 0 -3.02450522396e-10)
(-88.322 0 7.48761573938e-10)
(-88.3219999993 0 6.17571152867e-10)
(-88.3219999987 0 3.80449202543e-10)
(-88.3220000002 0 1.5946416846e-10)
(-88.3220000004 0 -6.26347728168e-12)
(-88.3220000002 0 -1.0001604624e-10)
(-88.3219999991 0 -2.01740773471e-10)
(-88.322 0 3.82809292316e-10)
(-88.3220000004 0 5.97700377911e-10)
(-88.322 0 -1.74502123028e-11)
(-88.3219999999 0 4.2387895976e-10)
(-88.322 0 3.29692817797e-10)
(-88.322 0 -4.13119209321e-10)
(-88.322 0 1.33029353448e-11)
(-88.3219999999 0 8.96464817951e-11)
(-88.3220000003 0 -3.90183030862e-11)
(-88.3220000003 0 1.6781038947e-10)
(-88.3219999999 0 1.72127548648e-10)
(-88.3219999998 0 -4.88110252954e-10)
(-88.3219999998 0 4.8973226446e-10)
(-88.3219999997 0 3.96242987815e-10)
(-88.3219999998 0 5.07277525134e-10)
(-88.3220000003 0 1.15175973425e-10)
(-88.3220000003 0 -6.50278075184e-10)
(-88.322 0 -2.42468852349e-10)
(-88.3219999998 0 8.68411572974e-10)
(-88.3219999999 0 1.05673446069e-09)
(-88.3220000003 0 -6.07273144287e-10)
(-88.3219999999 0 -6.02245859737e-10)
(-88.3219999998 0 -4.30183968981e-10)
(-88.3219999998 0 -5.75980826831e-11)
(-88.3219999991 0 1.13382292555e-10)
(-88.3219999996 0 -4.22754170892e-10)
(-88.3220000012 0 4.9952973779e-10)
(-88.3220000001 0 6.68247928445e-10)
(-88.3219999991 0 -1.0041968876e-10)
(-88.3220000019 0 -3.55802132322e-10)
(-88.3220000007 0 9.13673558075e-11)
(-88.3219999995 0 1.52475201026e-10)
(-88.3220000002 0 1.14162268693e-10)
(-88.321999999 0 -1.13062054805e-10)
(-88.3220000003 0 -6.8334561546e-12)
(-88.3220000001 0 -5.70691657448e-11)
(-88.3219999999 0 5.01974547032e-12)
(-88.3220000003 0 5.0478135009e-11)
(-88.3219999996 0 4.18852570336e-11)
(-88.322 0 -1.91285831365e-11)
(-88.322 0 1.26768815971e-11)
(-88.322 0 8.20336673307e-12)
(-88.322 0 7.45766507576e-12)
(-88.322 0 1.27766367884e-11)
(-88.3220000001 0 -7.01148220221e-11)
(-88.3219999999 0 2.78097409947e-10)
(-88.3220000001 0 -1.91778924925e-10)
(-88.3220000002 0 -7.29348262339e-11)
(-88.3219999996 0 -1.53831075454e-11)
(-88.3220000002 0 8.11165643843e-11)
(-88.322 0 2.63260908541e-10)
(-88.3219999999 0 -4.18307987804e-10)
(-88.3220000012 0 -4.45438873499e-10)
(-88.3220000002 0 2.98810050052e-10)
(-88.3219999994 0 3.26371287984e-10)
(-88.3220000007 0 4.3285614496e-11)
(-88.3219999984 0 3.87945778913e-10)
(-88.321999998 0 -8.56898583397e-11)
(-88.3220000002 0 4.4092610954e-10)
(-88.3220000006 0 -2.59763213973e-10)
(-88.3220000008 0 -7.61908014711e-11)
(-88.3220000009 0 -2.42130775405e-10)
(-88.3220000004 0 4.61750843474e-10)
(-88.3219999991 0 2.18901003424e-11)
(-88.3219999985 0 -2.55204699238e-10)
(-88.3220000012 0 4.47463625062e-11)
(-88.3220000003 0 2.66369239218e-11)
(-88.3219999989 0 4.76921300498e-11)
(-88.3220000018 0 -8.02401850013e-11)
(-88.3220000007 0 5.98220658246e-11)
(-88.3219999991 0 -1.61034537052e-10)
(-88.3220000002 0 -1.67264425905e-10)
(-88.3219999999 0 4.04666513701e-10)
(-88.3219999997 0 -3.76588519197e-10)
(-88.3220000011 0 -3.40416217169e-10)
(-88.3219999993 0 -6.07947418452e-11)
(-88.3219999984 0 -1.20007933501e-10)
(-88.3219999999 0 2.53743805379e-12)
(-88.3220000008 0 -2.27318289965e-10)
(-88.3220000019 0 -1.13090263263e-10)
(-88.3220000001 0 3.15403659012e-11)
(-88.3219999983 0 -1.42936318731e-12)
(-88.3219999986 0 2.27114186242e-13)
(-88.3220000011 0 -2.84257462902e-11)
(-88.3220000018 0 8.17515432311e-13)
(-88.322 0 5.44112715988e-12)
(-88.321999999 0 -7.44596353438e-11)
(-88.321999999 0 4.5628061644e-11)
(-88.3220000007 0 -3.02236196191e-10)
(-88.3219999996 0 -3.36115354685e-10)
(-88.321999999 0 -5.56048592874e-10)
(-88.3220000007 0 2.75357713936e-10)
(-88.3220000017 0 -4.29103721488e-10)
(-88.322 0 -3.67427499372e-10)
(-88.321999999 0 7.81538650001e-10)
(-88.3219999999 0 1.92141486607e-10)
(-88.3220000004 0 -1.21271711507e-10)
(-88.3220000004 0 -4.2791325666e-10)
(-88.3219999997 0 -1.38230253342e-10)
(-88.3219999999 0 6.04021612498e-10)
(-88.322 0 -1.53725417872e-10)
(-88.3219999999 0 -9.11505465335e-11)
(-88.322 0 4.28672653941e-11)
(-88.322 0 7.82344329132e-11)
(-88.322 0 -1.77382595322e-10)
(-88.322 0 5.89072405417e-11)
(-88.322 0 3.26663087497e-11)
(-88.3220000001 0 8.21629604483e-12)
(-88.3219999996 0 -9.59929796663e-12)
(-88.322 0 -3.1747858551e-11)
(-88.3220000004 0 2.88451374002e-11)
(-88.322 0 -3.25231216584e-11)
(-88.3219999998 0 1.06619499582e-10)
(-88.3220000002 0 -3.84690708493e-11)
(-88.3220000003 0 6.37326455849e-11)
(-88.3219999998 0 -6.92319837703e-11)
(-88.322 0 4.65507957057e-11)
(-88.3220000002 0 3.23936179466e-10)
(-88.3219999998 0 2.89176137922e-11)
(-88.3219999999 0 8.85731197036e-11)
(-88.3220000001 0 4.68440695172e-10)
(-88.3219999999 0 -4.97244586969e-10)
(-88.3219999997 0 -4.43540750848e-10)
(-88.3219999997 0 5.96173944251e-11)
(-88.3220000002 0 2.39469813956e-10)
(-88.3220000004 0 -9.74510366083e-11)
(-88.322 0 8.78703752518e-11)
(-88.3220000004 0 1.94927323136e-10)
(-88.3219999999 0 -3.61043297446e-10)
(-88.3219999999 0 -6.22059740528e-10)
(-88.322 0 1.95664060363e-10)
(-88.3220000001 0 -4.34169221782e-10)
(-88.3219999999 0 -3.51406627956e-10)
(-88.3220000001 0 4.0840972866e-10)
(-88.3220000005 0 -2.51223334348e-11)
(-88.3219999986 0 -1.1768050721e-10)
(-88.3220000007 0 7.05096695803e-11)
(-88.3220000019 0 -1.6172537135e-10)
(-88.3219999993 0 -1.06733739288e-10)
(-88.3219999993 0 3.6174868711e-10)
(-88.3219999996 0 -4.88064927112e-10)
(-88.3219999999 0 -3.54206779722e-10)
(-88.3219999999 0 -4.9199517668e-10)
(-88.3219999998 0 -6.46336894314e-12)
(-88.3220000001 0 4.38531447006e-10)
(-88.322 0 2.82684081577e-11)
(-88.322 0 -3.73875884063e-10)
(-88.3219999999 0 -6.74641550787e-10)
(-88.3220000003 0 1.87453794866e-10)
(-88.322 0 2.01631249148e-10)
(-88.3219999997 0 2.17321467909e-10)
(-88.3220000003 0 -2.70743009336e-10)
(-88.3219999999 0 -2.83717795047e-10)
(-88.3220000001 0 5.58588930749e-11)
(-88.322 0 -4.77091511956e-10)
(-88.322 0 -4.43870667681e-10)
(-88.3220000003 0 -9.87807195487e-11)
(-88.3219999995 0 4.06214823413e-10)
(-88.3219999997 0 -7.48781373501e-11)
(-88.3220000013 0 -8.5860205953e-11)
(-88.3220000015 0 -1.09575592922e-10)
(-88.321999999 0 -4.82988994004e-11)
(-88.3219999981 0 2.12188512601e-10)
(-88.3220000001 0 -4.21942504311e-11)
(-88.3220000013 0 7.36827579428e-11)
(-88.322 0 -3.20348095359e-11)
(-88.3219999993 0 -2.06432106029e-11)
(-88.3220000004 0 3.69523430886e-11)
(-88.322 0 -4.40244227535e-12)
(-88.3219999996 0 -1.1355246741e-11)
(-88.3220000001 0 -3.66661397825e-11)
(-88.322 0 -2.37932041002e-11)
(-88.3220000002 0 4.32364321683e-11)
(-88.3219999998 0 -1.8153938425e-10)
(-88.3220000001 0 4.39990453318e-11)
(-88.322 0 1.0503816864e-10)
(-88.3219999996 0 -1.48429051918e-10)
(-88.3220000002 0 -1.5978353235e-10)
(-88.322 0 1.002018992e-10)
(-88.3219999998 0 5.56285526156e-10)
(-88.3220000005 0 5.5723122608e-10)
(-88.3220000003 0 -2.89128797785e-10)
(-88.3219999999 0 -3.3751212007e-10)
(-88.3219999998 0 -2.09729026517e-10)
(-88.3219999996 0 -4.48847330438e-10)
(-88.3219999998 0 1.61488868553e-10)
(-88.3219999992 0 -4.1798118448e-10)
(-88.3219999993 0 3.51332248209e-10)
(-88.3220000012 0 -1.64790455306e-10)
(-88.3220000004 0 1.35739494298e-10)
(-88.3220000002 0 -2.7426199152e-10)
(-88.3220000001 0 6.44411315404e-12)
(-88.322 0 -4.33073506293e-11)
(-88.322 0 -1.65875513125e-12)
(-88.322 0 -7.1542527632e-11)
(-88.322 0 8.36775356918e-11)
(-88.322 0 3.81168912339e-11)
(-88.322 0 -9.072748553e-11)
(-88.3220000001 0 1.54731119918e-10)
(-88.322 0 1.55324293861e-10)
(-88.322 0 -4.65035333394e-10)
(-88.322 0 5.43853692312e-10)
(-88.322 0 5.37081000733e-10)
(-88.322 0 8.32256177279e-11)
(-88.322 0 1.19982914865e-10)
(-88.322 0 -2.89645711495e-11)
(-88.322 0 8.11732955775e-11)
(-88.322 0 -1.48354402967e-11)
(-88.322 0 3.27546795751e-12)
(-88.322 0 7.42602262074e-12)
(-88.322 0 -2.29624225901e-11)
(-88.322 0 1.50712414275e-11)
(-88.322 0 -1.01442403183e-11)
(-88.322 0 1.42488982253e-10)
(-88.322 0 -5.51309961676e-11)
(-88.322 0 -4.29947002296e-11)
(-88.322 0 7.1467809897e-11)
(-88.322 0 -2.64876406977e-11)
(-88.322 0 3.70865566219e-11)
(-88.322 0 -1.7800866723e-10)
(-88.322 0 4.38373752536e-11)
(-88.322 0 -7.85137618268e-11)
(-88.322 0 -3.84644587833e-11)
(-88.322 0 2.06731509264e-10)
(-88.3220000003 0 -1.45177244618e-10)
(-88.3219999999 0 1.54480531287e-10)
(-88.3219999997 0 -1.81701266041e-10)
(-88.3220000001 0 -7.22869294891e-10)
(-88.322 0 1.59395006941e-10)
(-88.322 0 3.00130998672e-10)
(-88.322 0 -2.03681829599e-11)
(-88.322 0 -7.8468030245e-11)
(-88.322 0 1.82807203258e-10)
(-88.322 0 -8.46853975006e-11)
(-88.322 0 -3.0352646956e-11)
(-88.322 0 -2.19928557529e-11)
(-88.322 0 -5.68549765419e-11)
(-88.322 0 1.34712846626e-10)
(-88.3219999998 0 -1.35389492244e-11)
(-88.3220000003 0 1.88525028717e-10)
(-88.3220000003 0 -4.99477084109e-11)
(-88.3219999996 0 -7.12782711379e-11)
(-88.3219999989 0 -1.56237713177e-10)
(-88.321999999 0 6.69493502737e-11)
(-88.3220000018 0 1.24727461157e-10)
(-88.322000002 0 -2.42773889711e-10)
(-88.3219999995 0 -1.03430510576e-10)
(-88.322 0 -5.82731662302e-11)
(-88.3219999994 0 -1.04316283651e-10)
(-88.3219999998 0 4.61726071029e-11)
(-88.3219999993 0 5.76845503427e-11)
(-88.3219999992 0 -9.97672842155e-10)
(-88.3220000005 0 -8.201332784e-10)
(-88.322 0 -2.33942892634e-10)
(-88.3219999996 0 1.20603259769e-10)
(-88.322 0 1.20549445339e-10)
(-88.3219999999 0 -1.53705874528e-10)
(-88.322 0 -4.89778866703e-11)
(-88.3219999997 0 6.64301697217e-11)
(-88.3219999999 0 5.53450225862e-11)
(-88.3220000003 0 -1.21537315347e-10)
(-88.322 0 -1.3392070551e-10)
(-88.322 0 -3.48832233809e-11)
(-88.322 0 -6.21548288092e-11)
(-88.322 0 4.55537892607e-12)
(-88.3219999999 0 -2.46098118921e-11)
(-88.3220000002 0 -7.23464919728e-12)
(-88.3220000001 0 -2.32905605565e-11)
(-88.3219999998 0 -3.03559643694e-11)
(-88.322 0 -3.87518013913e-11)
(-88.322 0 -3.30229400937e-11)
(-88.322 0 -5.83493214544e-12)
(-88.322 0 4.71043197096e-11)
(-88.322 0 -1.66271200104e-10)
(-88.3219999999 0 -6.94126530406e-11)
(-88.3219999999 0 4.77864867569e-10)
(-88.322 0 3.35510439474e-10)
(-88.3220000001 0 -4.55683563712e-10)
(-88.3220000001 0 -3.47550246728e-10)
(-88.322 0 -1.15256898043e-10)
(-88.3219999998 0 6.50815371282e-11)
(-88.3220000002 0 -1.58558768673e-10)
(-88.3220000003 0 1.19533178024e-10)
(-88.322 0 -1.46836688808e-10)
(-88.3220000001 0 -4.00716303761e-10)
(-88.3219999997 0 -3.07707252337e-10)
(-88.3219999991 0 2.30483971734e-10)
(-88.3220000015 0 -4.13481102171e-10)
(-88.3220000016 0 -4.5429067118e-10)
(-88.3219999991 0 -4.04748710386e-10)
(-88.3219999999 0 4.35116174955e-10)
(-88.3219999994 0 3.33646210594e-10)
(-88.3219999991 0 -3.66065598442e-10)
(-88.3220000002 0 -2.44400994953e-10)
(-88.322 0 5.09915616234e-10)
(-88.322 0 1.1094767145e-10)
(-88.322 0 -3.32965563868e-10)
(-88.322 0 -5.43504709481e-10)
(-88.322 0 2.38577969965e-10)
(-88.3220000001 0 -2.38000575942e-10)
(-88.3219999999 0 -7.86974926661e-11)
(-88.3219999997 0 -5.06120802118e-10)
(-88.322 0 4.23836517363e-10)
(-88.3220000001 0 -1.16882487227e-10)
(-88.322 0 6.16267673831e-11)
(-88.3220000005 0 2.57580698687e-10)
(-88.3219999998 0 -3.86558716604e-10)
(-88.3219999993 0 -9.09282352379e-10)
(-88.3220000011 0 -1.08314203887e-09)
(-88.3220000007 0 -3.96518524509e-10)
(-88.3219999995 0 9.62013967243e-10)
(-88.3219999998 0 5.595474864e-10)
(-88.3219999993 0 -7.43863462534e-11)
(-88.3219999995 0 -6.67292112839e-10)
(-88.3220000013 0 7.1526481301e-10)
(-88.322000001 0 -2.78508702488e-11)
(-88.3219999996 0 -1.74931889993e-10)
(-88.3219999995 0 -2.49048837393e-11)
(-88.322 0 1.06097526279e-10)
(-88.3220000006 0 5.62158630669e-11)
(-88.3220000003 0 2.23730353776e-10)
(-88.3219999996 0 -2.18695573713e-10)
(-88.3219999998 0 1.69067992208e-10)
(-88.3220000004 0 -2.57255249485e-10)
(-88.3220000003 0 2.037037766e-10)
(-88.3219999998 0 2.42149225181e-10)
(-88.322 0 -2.06517576282e-10)
(-88.3219999999 0 -4.04687866021e-10)
(-88.322 0 -1.39534001398e-10)
(-88.322 0 -4.53483424997e-10)
(-88.322 0 -4.41715473913e-10)
(-88.322 0 -1.61184476024e-10)
(-88.322 0 7.52368525221e-11)
(-88.322 0 3.43230267241e-11)
(-88.322 0 9.39515031879e-11)
(-88.3219999999 0 -3.35605731363e-10)
(-88.3220000003 0 -6.86409413888e-10)
(-88.3220000002 0 3.14302366984e-10)
(-88.3219999987 0 3.13389608874e-10)
(-88.3219999992 0 7.44408075177e-10)
(-88.3220000019 0 -4.52730227449e-10)
(-88.3220000013 0 -4.20834633537e-10)
(-88.3219999993 0 2.91976383406e-10)
(-88.3219999992 0 2.8086623457e-10)
(-88.3220000001 0 2.784443241e-10)
(-88.322 0 1.0412076299e-10)
(-88.3220000001 0 2.99779767629e-10)
(-88.322000001 0 1.02334189775e-10)
(-88.3220000002 0 3.09887261497e-11)
(-88.3219999987 0 9.3161602474e-11)
(-88.3220000002 0 -1.30395557692e-10)
(-88.3220000013 0 -3.83139048529e-10)
(-88.3220000003 0 5.19248064916e-10)
(-88.321999998 0 7.53377945149e-10)
(-88.3219999982 0 4.68981202732e-10)
(-88.3220000016 0 7.16935296611e-10)
(-88.3220000011 0 -4.70524834512e-10)
(-88.3219999984 0 -3.2126078111e-11)
(-88.3219999993 0 1.93649921211e-11)
(-88.3220000017 0 -5.79667122685e-11)
(-88.3220000013 0 5.47353367579e-11)
(-88.3219999988 0 -8.8293195451e-11)
(-88.3219999994 0 4.06402497586e-11)
(-88.3220000006 0 -1.12654376641e-10)
(-88.3220000005 0 -2.82794721959e-10)
(-88.3219999989 0 2.27148342256e-10)
(-88.321999999 0 3.17595233953e-10)
(-88.3220000011 0 4.10540995951e-10)
(-88.3219999995 0 -3.32037284411e-10)
(-88.3220000004 0 -3.3780318263e-10)
(-88.3220000011 0 6.54627686033e-10)
(-88.3220000003 0 8.97534464514e-11)
(-88.3220000008 0 1.09564925184e-10)
(-88.321999998 0 3.45134525451e-10)
(-88.3219999977 0 5.33563451457e-10)
(-88.3220000021 0 6.22064919704e-10)
(-88.3220000017 0 -2.26922935236e-10)
(-88.3219999982 0 -3.56889877966e-10)
(-88.321999998 0 -1.87106122871e-10)
(-88.322000001 0 4.30578224494e-10)
(-88.3220000006 0 3.83292854523e-10)
(-88.3219999994 0 2.86446175392e-10)
(-88.322 0 -1.7380673494e-10)
(-88.3219999998 0 -2.06405807982e-10)
(-88.3220000004 0 1.25723542366e-10)
(-88.322 0 -2.50056375677e-11)
(-88.3219999999 0 -5.9138343415e-11)
(-88.3219999999 0 -1.03935021341e-10)
(-88.3219999993 0 1.14192916846e-10)
(-88.3220000008 0 9.31835489098e-11)
(-88.3220000013 0 3.55792828682e-11)
(-88.3219999998 0 -3.2213649223e-11)
(-88.322 0 -2.87260841804e-10)
(-88.3220000004 0 -3.0632128868e-11)
(-88.3219999996 0 -7.89731738929e-11)
(-88.3219999991 0 -9.7839719766e-11)
(-88.3219999995 0 7.05727354371e-11)
(-88.322 0 -9.7917365455e-11)
(-88.3220000007 0 -1.07255868965e-11)
(-88.3220000016 0 1.42030861357e-12)
(-88.3219999988 0 -6.72552891585e-11)
(-88.321999998 0 1.87922529581e-10)
(-88.321999999 0 6.1245736829e-12)
(-88.3220000014 0 -3.40425847607e-10)
(-88.3220000024 0 -2.24013165993e-10)
(-88.3219999987 0 3.21508156491e-10)
(-88.3219999986 0 4.4599982301e-10)
(-88.322 0 1.18685886322e-10)
(-88.3220000001 0 -4.69923106204e-11)
(-88.3220000001 0 1.62796630701e-10)
(-88.3220000003 0 -8.72128765396e-11)
(-88.3220000005 0 1.57619930534e-10)
(-88.3220000001 0 4.02447541306e-10)
(-88.322 0 3.07270109451e-10)
(-88.3219999999 0 -2.26663323176e-10)
(-88.3220000003 0 5.04387155457e-10)
(-88.3219999995 0 2.80877405717e-10)
(-88.3219999991 0 6.06869074665e-10)
(-88.322 0 -4.93642480919e-10)
(-88.3220000013 0 -3.31475943936e-10)
(-88.3220000006 0 5.09785796655e-10)
(-88.3219999993 0 2.15937276815e-10)
(-88.322 0 -5.13540932697e-10)
(-88.322 0 -1.03616860362e-10)
(-88.3220000001 0 3.1811929907e-10)
(-88.322 0 5.66439985098e-10)
(-88.322 0 -3.84514353573e-10)
(-88.3220000008 0 2.25880477421e-10)
(-88.3219999993 0 4.97925936349e-11)
(-88.3219999985 0 5.14324553695e-10)
(-88.3219999996 0 -4.49013881129e-10)
(-88.3220000015 0 2.46720821757e-11)
(-88.3220000016 0 1.36309831024e-10)
(-88.3219999985 0 -5.12308096047e-10)
(-88.321999999 0 1.11199093198e-10)
(-88.3220000004 0 7.31763316389e-10)
(-88.3220000005 0 7.02859081119e-10)
(-88.3219999999 0 4.27696292313e-10)
(-88.3219999991 0 -4.22116979967e-10)
(-88.3220000012 0 -5.78050061426e-10)
(-88.3220000012 0 4.8980192459e-10)
(-88.3219999995 0 4.59777984403e-10)
(-88.3219999997 0 -3.73911384789e-10)
(-88.322 0 -4.97702856816e-10)
(-88.3219999999 0 1.25745077324e-10)
(-88.322 0 -1.68889568483e-10)
(-88.322 0 -3.55503953667e-11)
(-88.322 0 1.0903436516e-10)
(-88.322 0 -1.89839779489e-10)
(-88.322 0 1.81043961933e-10)
(-88.322 0 -9.82878349744e-11)
(-88.322 0 1.52064641204e-10)
(-88.322 0 -2.07406505021e-10)
(-88.322 0 -1.24424162578e-10)
(-88.3220000002 0 -1.93714524392e-10)
(-88.3220000004 0 1.612282015e-11)
(-88.322 0 3.33486179274e-10)
(-88.3219999996 0 1.71098373756e-10)
(-88.3220000001 0 -1.28032366077e-10)
(-88.3219999998 0 -2.65379492578e-10)
(-88.322 0 1.24004653378e-10)
(-88.3220000001 0 1.72463933664e-10)
(-88.3219999997 0 -2.03974220781e-10)
(-88.322 0 3.723858312e-10)
(-88.322 0 6.80789741276e-10)
(-88.3220000001 0 -2.95310444603e-10)
(-88.3219999997 0 -3.23980859631e-10)
(-88.3219999997 0 -7.6457116331e-10)
(-88.3220000005 0 3.74011550235e-10)
(-88.322 0 3.86824416327e-10)
(-88.3219999998 0 -3.15266049025e-10)
(-88.3220000001 0 -2.85077403727e-10)
(-88.322 0 -3.15252977912e-10)
(-88.322 0 -2.02456882532e-10)
(-88.322 0 -2.15215226783e-10)
(-88.322 0 -1.05302156023e-10)
(-88.322 0 1.03701390605e-10)
(-88.322 0 1.14523209965e-10)
(-88.3219999997 0 -1.44235273305e-10)
(-88.3220000003 0 3.23804649146e-10)
(-88.3220000002 0 -2.97481374442e-10)
(-88.3219999996 0 -6.42922453501e-10)
(-88.322 0 -5.14678155654e-10)
(-88.3219999998 0 -1.15731670459e-10)
(-88.3220000001 0 -7.70642754824e-11)
(-88.3220000005 0 -4.48247352956e-10)
(-88.3219999999 0 2.31102547752e-10)
(-88.322 0 3.34215372059e-10)
(-88.322 0 -3.68352891429e-10)
(-88.3220000003 0 4.79615413503e-11)
(-88.3220000001 0 -4.96121213856e-10)
(-88.3219999997 0 -4.36716203703e-10)
(-88.322 0 1.18444684514e-10)
(-88.3219999999 0 -7.46121149937e-10)
(-88.322 0 -4.43491763392e-10)
(-88.3219999999 0 -4.5105869177e-10)
(-88.3220000006 0 2.19395663006e-10)
(-88.3220000006 0 2.91923096843e-10)
(-88.3219999987 0 -5.27599939157e-10)
(-88.3219999991 0 -1.00138008601e-10)
(-88.3220000014 0 -4.6411061007e-10)
(-88.3220000003 0 2.61295585028e-10)
(-88.3219999998 0 -4.42092822059e-10)
(-88.3220000003 0 -8.5033430293e-10)
(-88.3219999997 0 -2.02750306689e-10)
(-88.3219999999 0 7.90368813835e-11)
(-88.322 0 3.10220214116e-10)
(-88.322 0 3.16382601757e-11)