/*--------------------------------*- C++ -*----------------------------------*\
  =========                 |
  \\      /  F ield         | OpenFOAM: The Open Source CFD Toolbox
   \\    /   O peration     | Website:  https://openfoam.org
    \\  /    A nd           | Version:  6
     \\/     M anipulation  |
\*---------------------------------------------------------------------------*/
FoamFile
{
    version     2.0;
    format      ascii;
    class       volScalarField;
    location    "4.92e-05";
    object      p;
}
// * * * * * * * * * * * * * * * * * * * * * * * * * * * * * * * * * * * * * //

dimensions      [1 -1 -2 0 0 0 0];

internalField   nonuniform List<scalar> 
8192
(
6000000.00076
5999999.99938
6000000.00033
6000000.00119
6000000.005
5999999.99796
6000000.00187
5999999.99931
6000000.00055
5999999.99985
6000000.0002
5999999.99982
6000000.00059
6000000.0014
6000000.0008
6000000.00068
6000000.00054
5999999.99794
5999999.99901
6000000.00059
5999999.9986
5999999.99731
6000000.00171
5999999.99985
5999999.99947
5999999.99994
5999999.99785
5999999.99906
5999999.99823
5999999.99888
6000000.00025
6000000.00072
5999999.99635
5999999.99391
6000000.00773
6000000.0075
5999999.99912
6000000.00432
5999999.99965
5999999.99684
6000000.0042
5999999.99741
6000000.00038
5999999.99987
6000000.00049
6000000.00044
6000000.0002
5999999.99964
5999999.99927
6000000.00167
5999999.99674
6000000.00083
6000000.00335
5999999.99559
5999999.99609
6000000.00118
5999999.99997
6000000.00338
6000000.00011
6000000.0061
5999999.99655
5999999.99724
5999999.99698
6000000.00275
6000000.00089
6000000.00229
6000000.00005
6000000.00411
5999999.9954
6000000.00335
5999999.99864
5999999.99636
6000000.0026
6000000.00271
6000000.0068
5999999.99674
5999999.99455
6000000.0064
6000000.00246
5999999.99522
5999999.99446
5999999.9919
6000000.00318
6000000.00584
6000000.00012
5999999.99922
6000000.00638
6000000.00468
5999999.99729
5999999.99716
5999999.99827
5999999.99829
5999999.99689
6000000.00471
5999999.99666
6000000.00247
6000000.00163
5999999.99945
6000000.00377
5999999.99823
5999999.99972
5999999.99988
5999999.9997
6000000.00031
5999999.99886
6000000.0003
6000000.00012
6000000
5999999.99998
5999999.99998
6000000.00012
6000000.00035
5999999.99939
6000000.00066
5999999.99961
6000000.00158
6000000.00009
5999999.99851
6000000.00074
5999999.99892
5999999.99914
5999999.99875
6000000.00024
5999999.99865
6000000.00019
5999999.99953
6000000.00028
6000000.00036
6000000.00623
6000000.00055
5999999.99648
6000000.00064
5999999.99839
5999999.99959
5999999.99997
5999999.99958
6000000.00087
6000000.00089
5999999.99853
6000000.00364
6000000.00073
6000000.00321
6000000.00436
5999999.99656
5999999.997
5999999.99805
6000000.00213
6000000.0023
5999999.99988
5999999.99991
5999999.99878
6000000.00068
5999999.99464
6000000.00031
5999999.99694
5999999.99677
6000000.00176
6000000.00144
5999999.99829
5999999.9991
5999999.99978
5999999.99967
6000000.00012
6000000.0005
5999999.99961
6000000.00228
6000000.00018
6000000.00116
5999999.99757
6000000.00064
5999999.99718
6000000.00337
6000000.00193
6000000.00275
6000000.00195
6000000.00413
6000000.00223
6000000.00017
5999999.99409
6000000.0031
6000000.00182
5999999.99776
6000000.00066
5999999.9979
6000000.00302
6000000.00064
6000000.00208
5999999.99274
5999999.99254
6000000.00186
6000000.00628
6000000.00418
5999999.99926
5999999.99917
6000000.00132
6000000.00051
5999999.99986
6000000.00001
5999999.99997
6000000.00001
6000000.00015
6000000.0001
6000000.00001
5999999.99732
5999999.9975
6000000.00309
5999999.99921
5999999.99996
6000000.00004
5999999.99998
6000000.00011
6000000.00032
6000000.00043
5999999.99949
5999999.99994
6000000.00009
5999999.99964
6000000.00046
5999999.99994
5999999.99509
6000000.00114
6000000.00189
5999999.99714
6000000.00091
6000000.00686
5999999.9941
5999999.99687
6000000.00527
6000000.00856
5999999.99185
5999999.9945
6000000.00137
6000000.00402
5999999.99537
6000000.00334
6000000.00041
6000000.00483
5999999.9982
6000000.00714
6000000.0036
5999999.99067
6000000.00045
6000000.00682
5999999.99853
6000000.00542
5999999.99345
5999999.9982
6000000.00134
6000000.00356
6000000.00405
6000000.00048
6000000.0024
6000000.00083
5999999.99896
5999999.9993
5999999.99926
5999999.99994
5999999.99871
6000000.00064
5999999.9978
6000000.00196
5999999.9982
5999999.99955
5999999.99921
5999999.99964
5999999.99992
5999999.9999
6000000.00151
6000000.00159
5999999.9963
6000000.00043
6000000.00193
5999999.9999
6000000.00305
5999999.99531
5999999.99682
6000000.00502
6000000.00068
5999999.99629
5999999.99461
5999999.99984
5999999.99377
5999999.9985
5999999.99452
6000000.00182
6000000.00584
5999999.9957
6000000.00065
5999999.99915
6000000.00138
5999999.99932
5999999.99935
6000000.00162
5999999.99769
6000000.00228
6000000.00026
6000000.00006
6000000.00016
6000000.00001
6000000.00001
6000000.00003
6000000.00035
5999999.99885
6000000.00156
5999999.99725
5999999.99969
5999999.99806
6000000.0021
6000000.00661
5999999.99867
5999999.9931
6000000.00318
6000000.00745
5999999.99757
6000000.00352
5999999.99825
6000000.00741
5999999.99617
5999999.99642
5999999.99618
6000000.00166
6000000.00264
5999999.99482
6000000.00203
6000000.00121
5999999.9998
6000000.00109
5999999.99813
6000000.00055
6000000.00076
5999999.99755
6000000.00258
6000000.00223
6000000.00093
6000000.00022
5999999.99971
5999999.99682
5999999.99726
6000000.00081
6000000.00113
5999999.99972
5999999.99821
5999999.99742
6000000.00072
5999999.99653
6000000.00081
5999999.99647
5999999.99421
5999999.9966
6000000.00371
5999999.99702
5999999.99632
6000000.00729
5999999.99875
6000000.00309
5999999.99988
5999999.99618
6000000.00391
5999999.99506
6000000.00397
5999999.99993
5999999.9993
6000000.00135
5999999.9997
6000000.00109
6000000.00009
6000000.00101
6000000.00169
5999999.99793
6000000.00315
6000000.00149
5999999.99699
6000000.00201
6000000.00027
6000000.00003
6000000.00389
5999999.99764
6000000.00414
6000000.00283
5999999.99397
5999999.99172
5999999.9953
5999999.99869
6000000.00137
6000000.00244
6000000.00329
5999999.99372
5999999.99142
6000000.00162
5999999.99587
5999999.99877
6000000.00505
5999999.9982
5999999.99873
6000000.00243
5999999.99634
5999999.99797
6000000.0065
5999999.99603
5999999.99906
5999999.99434
6000000.00226
6000000.00519
5999999.99953
5999999.99805
5999999.99151
6000000.00457
5999999.99893
6000000.00481
5999999.99899
5999999.99643
6000000.00337
5999999.99477
5999999.99383
6000000.00036
6000000.00279
5999999.99822
5999999.99802
5999999.99773
6000000.00183
6000000.00191
5999999.99728
6000000.00215
5999999.99844
5999999.99941
6000000.00116
5999999.99898
5999999.99959
5999999.99992
6000000.00069
6000000.00137
5999999.99715
6000000.0017
6000000.0005
5999999.99954
5999999.9975
6000000.00185
6000000.00045
5999999.99895
6000000.00186
6000000.00147
5999999.99763
5999999.99946
6000000.00036
5999999.99922
5999999.99646
5999999.99685
5999999.99869
5999999.99525
6000000.00283
6000000.00209
6000000.00018
6000000.00056
5999999.99901
6000000.00333
5999999.99801
6000000.00309
6000000.00203
5999999.99552
6000000.00455
6000000.00133
6000000.0005
6000000.00077
5999999.99814
6000000.00215
6000000.00028
5999999.99898
6000000.0014
6000000.00009
5999999.99927
5999999.99702
6000000.00474
5999999.99651
5999999.99955
6000000.00193
5999999.99671
6000000.00396
5999999.99577
6000000.00279
5999999.99904
5999999.99909
5999999.99704
6000000.00258
6000000.00632
5999999.99809
5999999.998
6000000.00122
6000000.00279
5999999.99798
5999999.99716
6000000.00624
5999999.99794
5999999.99973
5999999.99958
6000000.0008
6000000.0033
5999999.9976
6000000.00463
5999999.99836
5999999.99866
6000000.002
6000000.00029
5999999.99959
6000000.00344
6000000.00037
6000000.00306
5999999.99867
5999999.99914
5999999.99951
5999999.99757
5999999.99413
6000000.0028
6000000.0014
5999999.99847
5999999.99956
5999999.99866
6000000.00016
5999999.99809
6000000.00115
5999999.99871
6000000.00051
5999999.99943
5999999.99989
6000000.00032
5999999.99813
6000000.00089
6000000.00024
5999999.99987
5999999.99989
5999999.9998
6000000.00018
6000000.00035
5999999.99977
5999999.99995
5999999.99982
6000000.00002
5999999.99981
5999999.99992
5999999.9997
5999999.9994
5999999.99999
6000000
5999999.99981
5999999.99998
6000000.00007
5999999.99992
5999999.99859
6000000.0026
5999999.99827
5999999.99928
5999999.99903
5999999.99925
6000000.0001
5999999.99991
6000000.00001
5999999.99972
6000000.00157
6000000.00063
6000000.00011
6000000.00024
5999999.99936
5999999.99756
6000000.00272
6000000.00322
5999999.99843
5999999.99313
5999999.99309
6000000.00139
6000000.00645
6000000.0026
6000000.00395
5999999.99663
6000000.00459
5999999.99334
6000000.00108
5999999.9961
6000000.0004
5999999.99995
6000000.00326
5999999.9989
6000000.00199
5999999.99769
6000000.00179
5999999.99967
6000000.00003
6000000.00026
6000000.00039
6000000.00003
5999999.9996
6000000.00309
5999999.99966
6000000.00001
6000000.00002
5999999.99992
5999999.99989
6000000.00004
6000000.0006
5999999.99886
5999999.99882
5999999.99888
5999999.99928
5999999.99988
5999999.99855
5999999.99653
6000000.00185
6000000.00078
6000000.00086
6000000.00229
5999999.99745
5999999.99728
6000000.00762
6000000.00343
6000000.00147
6000000.00308
5999999.99714
5999999.99877
6000000.00099
5999999.99914
6000000.00091
6000000.0002
6000000.00056
6000000.00057
6000000.00252
5999999.99946
5999999.9977
6000000.00048
5999999.99966
5999999.99971
6000000.00479
5999999.99917
5999999.99774
6000000.0031
6000000.00174
6000000.00046
6000000.00102
5999999.99641
5999999.9976
6000000.00483
6000000.00557
6000000.00276
5999999.99671
5999999.99761
6000000.00318
5999999.99989
5999999.99794
5999999.99675
6000000.00422
6000000.00318
5999999.99975
6000000.00195
5999999.9978
6000000.00142
5999999.9995
6000000.00063
6000000.0008
6000000.0005
6000000.00117
5999999.99948
5999999.99904
6000000.00144
6000000.00112
5999999.99386
5999999.99437
6000000.00356
6000000.00079
5999999.99928
5999999.99843
6000000.00315
5999999.9971
6000000.00083
6000000.00146
6000000.00299
5999999.99323
6000000.00285
6000000.00166
6000000.00507
5999999.99547
5999999.99772
6000000.00153
6000000.00052
5999999.99471
5999999.99777
6000000.00499
6000000.00593
5999999.99939
6000000.00177
6000000.0013
6000000.00429
5999999.99722
6000000.00147
6000000.00178
5999999.99535
6000000.00328
6000000.00338
6000000.00563
6000000.00875
5999999.99529
5999999.99795
6000000.00388
6000000.00683
5999999.9944
5999999.99482
6000000.00262
5999999.99792
6000000
6000000.00069
5999999.99604
6000000.00188
5999999.99695
6000000.00053
5999999.99595
5999999.99401
6000000.00396
6000000.00336
5999999.99841
6000000.00324
6000000.00129
6000000.00009
5999999.99978
5999999.99853
5999999.99708
6000000.00387
6000000.00762
5999999.99647
5999999.99857
5999999.99226
6000000.00501
6000000.00627
5999999.99557
5999999.99731
5999999.99579
5999999.99726
5999999.99639
6000000.00102
5999999.9991
6000000.00188
5999999.99898
5999999.99978
6000000.00342
5999999.99428
5999999.99458
5999999.99622
6000000.00716
6000000.00025
5999999.99852
6000000.00095
5999999.9999
6000000.0027
5999999.99904
6000000.0016
6000000.00609
5999999.9962
5999999.99399
5999999.99248
6000000.00304
6000000.00276
5999999.992
5999999.99654
5999999.99681
6000000.0014
5999999.99869
5999999.99302
6000000.00403
6000000.00467
5999999.9999
6000000.00091
5999999.99999
6000000.00064
6000000.00086
6000000.00052
6000000.00005
5999999.99998
5999999.99991
5999999.99988
6000000.00015
6000000.00032
5999999.99832
6000000.0021
6000000.00665
6000000.00002
6000000.00096
6000000.00291
5999999.99924
6000000.00356
6000000.00125
5999999.99992
5999999.99989
5999999.99986
6000000.00151
5999999.99741
5999999.99711
6000000.0011
5999999.99606
6000000.0011
5999999.99862
5999999.99949
5999999.99919
5999999.99987
5999999.99983
6000000.00005
6000000.0004
5999999.99781
6000000.00345
5999999.99856
5999999.99899
5999999.99992
5999999.99777
6000000.00108
6000000.00117
6000000.00013
6000000.00041
5999999.99884
6000000.00385
5999999.99986
6000000
6000000.00052
5999999.99961
6000000.0004
5999999.99762
6000000.006
6000000.00353
5999999.99476
5999999.99835
6000000.00227
5999999.99805
6000000.00351
5999999.99887
5999999.99989
6000000.00006
5999999.99947
6000000.00027
5999999.99915
6000000.00081
5999999.99697
6000000.00196
6000000.00106
6000000.00103
5999999.99964
6000000.00014
5999999.99684
6000000.0071
6000000.00359
5999999.99373
6000000.00147
6000000.00308
6000000.00462
5999999.99595
5999999.99524
6000000.00419
5999999.99858
5999999.99942
6000000.00022
5999999.99995
5999999.99992
5999999.99996
6000000.00002
5999999.99989
5999999.99993
5999999.99988
6000000.00024
5999999.99827
6000000.00263
5999999.9972
5999999.9996
6000000.00131
5999999.99294
6000000.00524
6000000.00515
6000000.0017
5999999.99928
6000000.00323
6000000.00543
5999999.9965
5999999.99525
6000000.00303
5999999.99909
6000000.00334
6000000.00541
6000000.00053
6000000.00598
6000000.00009
5999999.99979
6000000.00085
6000000.00072
5999999.99985
6000000.00003
6000000.00361
5999999.99789
6000000.00067
6000000.00181
6000000.00324
6000000.00294
5999999.99442
6000000.002
6000000.00068
6000000.00088
5999999.99902
6000000.00511
6000000.00357
5999999.99753
6000000.00295
6000000.00029
5999999.9992
6000000.00064
5999999.99937
6000000.00229
5999999.99327
6000000.00265
6000000.00156
6000000.00015
5999999.99876
6000000.00017
6000000.00124
5999999.99973
6000000.00001
6000000.00002
6000000
6000000.00002
5999999.99989
6000000.00001
5999999.99981
5999999.99994
6000000.00029
5999999.99896
6000000.00173
5999999.9996
5999999.99979
5999999.99968
6000000.00027
5999999.99823
6000000.00075
6000000.00045
6000000.00071
5999999.99749
5999999.99795
6000000.00112
6000000.0019
5999999.99845
6000000.00101
5999999.99818
6000000.00301
6000000.00265
6000000.00049
6000000.00032
5999999.99962
5999999.99895
6000000.00225
5999999.99526
6000000.00664
5999999.99678
5999999.99451
6000000.00376
6000000.00436
6000000.00531
5999999.99994
6000000.00017
5999999.9945
5999999.99532
5999999.99525
6000000.00192
5999999.99772
6000000.00518
5999999.99916
5999999.99736
6000000.00072
5999999.99723
6000000.00205
5999999.99805
6000000.00517
5999999.99252
5999999.99527
6000000.00423
5999999.99479
5999999.99674
5999999.99814
6000000.00197
6000000.00175
6000000.00124
6000000.00002
6000000.00105
6000000.0007
6000000.00257
5999999.99636
6000000.00228
6000000.00131
5999999.99974
5999999.99813
5999999.99995
6000000.00002
5999999.99828
5999999.99883
6000000.00147
5999999.99993
6000000.00161
6000000.0022
5999999.99727
5999999.999
6000000.00471
5999999.99919
5999999.99971
5999999.99988
6000000.00001
6000000.00001
6000000.00014
6000000.00003
5999999.99983
6000000.00058
6000000.00013
5999999.99634
6000000.00092
5999999.99954
5999999.99989
5999999.99998
6000000.00039
5999999.99795
6000000.00362
6000000.00199
5999999.99513
6000000.00667
5999999.99385
5999999.99295
6000000.00272
6000000.00546
5999999.99143
5999999.99754
5999999.99712
5999999.9993
6000000.00151
5999999.99789
6000000.00126
5999999.99605
5999999.99698
6000000.00057
5999999.99736
6000000.00348
5999999.99812
6000000.00167
6000000.00304
5999999.99534
5999999.99515
5999999.99411
5999999.99935
6000000.00486
6000000.00217
5999999.99606
5999999.99303
6000000.00414
6000000.003
5999999.9933
5999999.99908
6000000.0059
6000000.00449
5999999.99779
5999999.99774
6000000.00452
5999999.99969
6000000.00002
6000000.00001
5999999.99985
6000000.00095
6000000.00154
5999999.99846
5999999.99818
5999999.99857
6000000.00045
6000000.00174
5999999.99949
6000000.0007
5999999.99827
5999999.99771
6000000.00154
6000000.00058
6000000.00029
6000000.00002
6000000.00004
5999999.99991
5999999.99992
6000000.0004
5999999.99907
5999999.99876
6000000.00017
6000000.00251
5999999.99788
5999999.99986
6000000.00008
5999999.99443
6000000.00042
6000000.00057
6000000.00457
6000000.00175
5999999.9994
6000000.00145
6000000.00046
5999999.99784
6000000.00318
5999999.99645
6000000.00313
6000000.00072
6000000.00492
5999999.99914
5999999.99969
6000000.00597
6000000.00239
6000000.00374
6000000.00215
5999999.99635
5999999.99873
6000000.00303
5999999.99953
5999999.9974
5999999.99709
6000000.00258
5999999.99759
5999999.99893
5999999.99675
6000000.00028
6000000.00229
5999999.99834
5999999.99845
5999999.99885
5999999.99981
5999999.99985
6000000.00149
6000000.00057
6000000.00073
5999999.99898
6000000.00166
6000000.00159
5999999.99828
5999999.99987
6000000.00011
6000000.00002
6000000.00011
5999999.99997
6000000.0011
6000000.00119
5999999.99803
6000000.00286
6000000.00196
5999999.99624
6000000.00513
5999999.99488
5999999.99821
6000000.00265
6000000.00656
6000000.00303
6000000.00256
6000000.00172
5999999.99232
5999999.99723
5999999.99863
5999999.99906
6000000.00386
6000000.00485
5999999.99332
5999999.99687
5999999.99474
6000000.00592
6000000.0027
6000000.00304
5999999.99868
6000000.00094
6000000.00076
6000000.00196
5999999.99955
5999999.99909
5999999.99978
6000000.00003
5999999.99991
6000000.00087
5999999.9992
6000000.00114
5999999.99978
6000000.00001
5999999.99865
5999999.99602
6000000.00366
6000000.00116
5999999.99593
5999999.99472
6000000.00577
5999999.99816
5999999.99564
6000000.0017
6000000.00638
5999999.99522
6000000.00441
5999999.99877
5999999.99781
6000000.00582
5999999.99928
6000000.00015
5999999.99998
6000000
6000000.00007
6000000.00001
6000000.00007
6000000.00002
6000000.00007
6000000.0002
6000000.00025
6000000.00004
6000000.00016
5999999.99931
6000000.00111
6000000.00148
5999999.99484
6000000.00331
6000000.00508
5999999.99862
6000000.00179
6000000.00247
6000000.00227
5999999.99913
6000000.00033
5999999.99381
6000000.00127
5999999.99944
6000000.00134
6000000.003
5999999.99898
5999999.99876
5999999.99939
5999999.99886
6000000.00027
5999999.99847
6000000.00124
6000000.00186
5999999.9983
5999999.99943
5999999.99874
6000000.00138
5999999.99971
5999999.99999
5999999.99983
5999999.9993
6000000.00084
5999999.99909
5999999.99799
6000000.00368
5999999.99631
6000000.00157
5999999.99891
5999999.99928
5999999.99989
5999999.99921
6000000.00202
5999999.99541
6000000.00201
5999999.9994
5999999.99922
6000000.00004
5999999.99944
5999999.99987
5999999.99959
6000000.00113
5999999.99845
5999999.99946
5999999.99995
5999999.99993
5999999.99992
5999999.99998
6000000.00009
5999999.99993
5999999.99969
6000000
5999999.99989
5999999.9999
6000000.00001
5999999.99942
6000000.00185
5999999.99951
6000000.00016
6000000.00013
6000000.00142
5999999.9981
6000000.00156
5999999.9962
6000000.00261
6000000.00168
6000000.00202
6000000.00237
5999999.99687
5999999.99925
5999999.99806
6000000.00251
5999999.99899
5999999.99801
6000000.0017
5999999.99824
5999999.99912
5999999.99962
6000000.00008
6000000.0043
6000000.00193
6000000.00334
5999999.9991
6000000.00033
6000000.00248
5999999.99492
6000000.00079
5999999.99647
6000000.00536
6000000.00201
5999999.99414
5999999.9954
5999999.9952
6000000.00592
6000000.00191
6000000.0059
5999999.997
5999999.99792
6000000.00077
5999999.99501
5999999.99416
5999999.9969
5999999.99822
6000000.00226
5999999.9948
5999999.99668
5999999.99338
6000000.00049
5999999.99509
5999999.99802
5999999.99665
5999999.99655
5999999.99513
5999999.99455
6000000.00408
6000000.00137
6000000.00137
5999999.994
6000000.0024
5999999.99963
6000000.0002
6000000.00116
5999999.99862
6000000.0003
5999999.99591
6000000.00322
5999999.99471
5999999.99485
6000000.00247
5999999.99449
5999999.99516
6000000.00603
5999999.99533
5999999.99386
6000000.00104
6000000.00201
5999999.99957
6000000.00136
6000000.00057
6000000.00036
5999999.99996
6000000.00067
5999999.99952
6000000.00057
5999999.99903
6000000.00028
6000000.00022
5999999.99992
5999999.99993
6000000.0001
6000000.00162
5999999.99979
5999999.99965
6000000.00128
6000000.00009
5999999.99949
5999999.99967
5999999.99948
5999999.99908
6000000.00026
6000000.00004
6000000.00036
5999999.99956
5999999.99911
6000000.00064
6000000.0021
5999999.99823
6000000.00087
6000000.0029
6000000.00265
5999999.99612
5999999.99743
6000000.00329
5999999.99935
6000000.00145
6000000.00054
5999999.99666
6000000.00297
6000000.00246
6000000.00009
5999999.99864
6000000.00005
5999999.99829
6000000.00358
6000000.00029
6000000.00119
5999999.99876
5999999.99756
6000000.00639
6000000.00589
5999999.99317
5999999.99737
6000000.00179
6000000.00141
5999999.99883
6000000.00122
5999999.99988
6000000.00333
5999999.99917
6000000.00245
5999999.99967
5999999.99956
5999999.99996
6000000.00004
5999999.99997
5999999.99998
5999999.99998
6000000.00001
6000000.00004
6000000.00014
6000000
6000000
6000000.00001
5999999.99999
6000000.00019
5999999.99998
6000000.00001
5999999.99993
5999999.99996
6000000.00021
6000000.00025
5999999.99995
6000000.00014
5999999.99999
6000000
5999999.9997
6000000.0003
5999999.99994
6000000.00031
5999999.99942
5999999.99929
5999999.99922
6000000.00055
5999999.99969
6000000.00283
5999999.99938
5999999.99968
5999999.99965
6000000.00017
6000000.00002
6000000.00013
5999999.99993
6000000.00001
6000000
6000000.00013
5999999.99904
6000000.00062
5999999.99886
6000000.00355
5999999.99941
5999999.99888
6000000.0015
5999999.99885
6000000.0038
6000000.00379
5999999.99864
5999999.9998
6000000.00627
6000000.00087
6000000.0007
6000000.00095
5999999.99968
6000000.00003
6000000.00007
6000000.00026
6000000.00008
6000000.00007
6000000.00029
5999999.99904
6000000.00125
6000000.00074
6000000.00047
6000000.0003
5999999.99937
5999999.99997
5999999.99992
6000000.00002
5999999.99998
6000000.00099
5999999.99886
5999999.99722
6000000.00246
5999999.99788
6000000.00232
5999999.99636
5999999.99908
5999999.99971
5999999.99694
5999999.99976
6000000.00409
5999999.99498
5999999.99383
6000000.00201
5999999.99324
5999999.99377
6000000.00104
5999999.9972
5999999.9986
5999999.99574
6000000.00236
6000000.00233
5999999.99667
6000000.0043
5999999.99794
5999999.99776
6000000.00243
6000000.00261
5999999.99957
5999999.99929
5999999.99965
6000000.00007
5999999.99982
5999999.99932
6000000.00182
5999999.99945
6000000.00204
5999999.99857
5999999.99814
6000000.00012
5999999.99885
5999999.99939
5999999.9982
5999999.99862
5999999.99865
5999999.99982
5999999.9986
6000000.00373
5999999.9995
5999999.99779
5999999.99981
5999999.99999
5999999.99996
5999999.99983
5999999.99984
6000000.00022
5999999.99998
5999999.99996
6000000.00014
6000000.00013
5999999.99998
6000000.00007
5999999.99998
6000000.00018
6000000.00068
6000000.0005
5999999.99766
5999999.99798
6000000.00121
6000000.0002
5999999.99998
5999999.99998
6000000.00001
5999999.99989
5999999.99968
6000000.0001
5999999.99999
5999999.99906
6000000.00071
5999999.9997
6000000.0015
5999999.999
6000000.00022
6000000.00182
5999999.99944
6000000.00035
5999999.9994
6000000.00004
5999999.99991
6000000
5999999.99983
5999999.99991
6000000.00002
5999999.99936
5999999.99851
6000000.0002
5999999.99909
6000000.00239
5999999.99794
6000000.00106
6000000.00059
5999999.99985
6000000.00036
6000000.00131
5999999.99907
5999999.99604
6000000.00372
6000000.00018
6000000.00016
6000000.00074
6000000.00184
6000000.0004
5999999.99731
6000000.00426
6000000.00305
5999999.99976
5999999.99799
6000000.00222
6000000.00174
5999999.99883
6000000.00517
6000000.00028
6000000.0025
5999999.99693
5999999.99752
6000000.00127
5999999.99907
5999999.99972
5999999.99687
6000000.00401
6000000.00103
5999999.99874
6000000.00029
5999999.9984
6000000.00342
5999999.99835
6000000.00171
5999999.99456
6000000.00636
6000000.00488
5999999.99822
6000000.00109
5999999.99281
5999999.99241
6000000.0033
6000000.00245
6000000.00442
5999999.99796
5999999.99527
6000000.00423
5999999.99609
5999999.9988
5999999.99885
5999999.99808
6000000.00113
5999999.99906
6000000.00018
5999999.99982
5999999.99948
6000000.00037
5999999.99774
6000000.00211
5999999.99962
5999999.99884
6000000.00258
5999999.99799
6000000.00133
5999999.99611
6000000.00033
5999999.99998
5999999.99964
5999999.99847
5999999.99843
6000000.00152
6000000.00177
5999999.99918
6000000.00685
6000000.00254
5999999.99402
6000000.00307
5999999.9985
6000000.00697
6000000.00534
5999999.9974
5999999.99582
5999999.99877
6000000.00645
6000000.00196
5999999.99713
5999999.99592
5999999.99535
6000000.00291
5999999.99691
5999999.99476
5999999.99806
5999999.99479
6000000.00404
5999999.99732
5999999.9965
5999999.99865
6000000.00173
5999999.99747
5999999.99737
6000000.00137
6000000.00126
5999999.99628
5999999.99763
5999999.99555
5999999.99563
5999999.99738
5999999.99861
6000000.00088
5999999.99285
5999999.99405
6000000.00183
6000000.00043
5999999.99523
5999999.9957
5999999.99503
5999999.99374
6000000.00428
5999999.99689
5999999.99235
6000000.00017
5999999.9959
6000000.00239
6000000.00505
5999999.99262
5999999.99454
5999999.99762
6000000.00549
6000000.0008
5999999.99766
6000000.00315
6000000.00576
5999999.99978
6000000.006
5999999.99626
5999999.9936
6000000.0036
6000000.00066
5999999.99953
5999999.99465
5999999.99643
6000000.00268
5999999.99613
5999999.99842
6000000.00213
5999999.99892
6000000.00297
6000000.00712
6000000.00319
5999999.99841
5999999.99527
5999999.99726
6000000.00576
6000000.00224
5999999.99563
5999999.99717
6000000.00083
6000000.00621
6000000.00095
5999999.99892
5999999.99977
6000000.00147
5999999.99861
5999999.9991
6000000.00344
6000000.00174
5999999.99695
6000000.00263
5999999.99667
5999999.9996
5999999.99734
6000000.0004
6000000.00222
5999999.99413
6000000.00002
6000000.00104
5999999.99416
5999999.99747
6000000.00291
5999999.99809
5999999.99811
6000000.00255
5999999.99842
5999999.9966
5999999.99558
5999999.99798
5999999.99595
5999999.99928
5999999.99795
6000000.00678
5999999.99766
6000000.00031
6000000.00529
5999999.9986
6000000.00139
5999999.99996
6000000.00845
5999999.99716
6000000.00085
6000000.00632
6000000.00684
5999999.99896
5999999.99808
6000000.00997
6000000.00777
6000000.00608
5999999.99804
5999999.99805
6000000.00798
6000000.00836
6000000.00184
6000000.00669
6000000.0023
5999999.9951
6000000.00679
6000000.00783
6000000.00014
5999999.99729
6000000.00744
6000000.00256
5999999.99408
6000000.00241
6000000.00216
6000000.00908
6000000.00766
5999999.99767
6000000.00233
6000000.00712
5999999.99615
5999999.99955
6000000.00644
6000000.00916
6000000.00053
6000000.00631
6000000.00554
6000000.00489
5999999.998
6000000.00129
6000000.0084
6000000.00953
6000000.01007
6000000.00299
6000000.00298
6000000.00642
6000000.01028
5999999.99968
6000000.00292
6000000.00575
5999999.9966
6000000.00566
6000000.00522
6000000.00988
6000000.00419
6000000.00739
6000000.00571
5999999.99361
6000000.00684
6000000.00207
5999999.9986
6000000.00875
5999999.99877
5999999.99979
5999999.99858
6000000.00038
5999999.99832
5999999.99963
5999999.99899
5999999.99949
5999999.99927
5999999.99953
5999999.99723
5999999.99772
5999999.99956
5999999.99811
6000000.00024
5999999.99825
5999999.99867
5999999.99832
6000000.00009
5999999.99789
5999999.99748
5999999.99855
5999999.99967
5999999.99853
5999999.99862
5999999.99959
5999999.99751
5999999.99843
5999999.9993
5999999.99583
5999999.99847
6000000.00024
5999999.9992
5999999.99672
5999999.99936
5999999.99741
5999999.99992
5999999.99887
5999999.99869
5999999.99676
5999999.99898
6000000.00005
5999999.9978
5999999.99947
5999999.9996
5999999.9987
5999999.99881
5999999.99909
5999999.99664
5999999.99684
5999999.99941
5999999.99996
6000000.0002
6000000.0004
5999999.99832
5999999.99894
5999999.9979
5999999.9983
5999999.99826
5999999.99875
5999999.99958
6000000.00038
6000000.00207
5999999.9983
5999999.99935
5999999.99945
5999999.9999
5999999.99973
6000000.00062
5999999.99981
5999999.99953
6000000.00019
5999999.99973
5999999.9997
5999999.99976
5999999.99979
6000000.00038
6000000.00003
5999999.99979
5999999.99959
6000000.00027
6000000.00035
5999999.99985
6000000.0003
5999999.9999
6000000.00038
5999999.99993
5999999.99984
6000000.00026
5999999.99998
6000000.00039
5999999.99988
5999999.99999
5999999.99954
6000000.0003
6000000.00047
6000000.00025
6000000.00051
5999999.99996
6000000.00048
6000000.00048
5999999.99974
6000000.00027
5999999.99991
6000000.00031
6000000.00009
5999999.9997
6000000.00083
6000000.00021
6000000.00048
6000000.00027
5999999.99956
5999999.9999
5999999.99973
6000000.00013
6000000.00005
6000000.00036
6000000.00042
5999999.99971
6000000.00003
6000000.00022
6000000.00009
6000000.00028
6000000.00014
6000000.00022
6000000.00044
5999999.99974
6000000.00056
6000000.00072
6000000.00103
6000000.00096
6000000.00104
6000000.00059
6000000.00101
6000000.00086
6000000.0012
6000000.00082
6000000.0008
6000000.0009
6000000.00088
6000000.00083
6000000.00079
6000000.0009
6000000.00096
6000000.00082
6000000.00096
6000000.00111
6000000.0009
6000000.00111
6000000.0012
6000000.00072
6000000.001
6000000.00096
6000000.00089
6000000.00074
6000000.00055
6000000.00101
6000000.0009
6000000.00088
6000000.00086
6000000.00087
6000000.00116
6000000.00072
6000000.00094
6000000.00074
6000000.00082
6000000.00064
6000000.00085
6000000.00101
6000000.00108
6000000.00098
6000000.00092
6000000.00092
6000000.00094
6000000.00077
6000000.00104
6000000.00121
6000000.00125
6000000.00074
6000000.0009
6000000.00083
6000000.00097
6000000.00097
6000000.00095
6000000.00098
6000000.00103
6000000.00101
6000000.00102
6000000.00091
6000000.00122
6000000.00135
6000000.00086
5999999.99902
5999999.9987
5999999.99882
5999999.99904
5999999.99875
5999999.99915
5999999.99881
5999999.99879
5999999.99871
5999999.99874
5999999.99886
5999999.99899
5999999.99903
5999999.99883
5999999.99862
5999999.99874
5999999.9988
5999999.99898
5999999.99885
5999999.99904
5999999.99879
5999999.99877
5999999.99912
5999999.99898
5999999.99872
5999999.99889
5999999.99934
5999999.99875
5999999.99895
5999999.99907
5999999.99901
5999999.99941
5999999.9991
5999999.99907
5999999.99889
5999999.99888
5999999.9991
5999999.99869
5999999.9986
5999999.99869
5999999.99903
5999999.99909
5999999.99888
5999999.99901
5999999.99896
5999999.99898
5999999.99924
5999999.99902
5999999.99882
5999999.99899
5999999.99887
5999999.99866
5999999.99883
5999999.99865
5999999.99893
5999999.99889
5999999.99894
5999999.99899
5999999.99888
5999999.99886
5999999.99881
5999999.99905
5999999.9988
5999999.99888
5999999.99953
5999999.99932
5999999.99948