/*--------------------------------*- C++ -*----------------------------------*\
  =========                 |
  \\      /  F ield         | OpenFOAM: The Open Source CFD Toolbox
   \\    /   O peration     | Website:  https://openfoam.org
    \\  /    A nd           | Version:  6
     \\/     M anipulation  |
\*---------------------------------------------------------------------------*/
FoamFile
{
    version     2.0;
    format      ascii;
    class       volVectorField;
    location    "4.92e-05";
    object      U;
}
// * * * * * * * * * * * * * * * * * * * * * * * * * * * * * * * * * * * * * //

dimensions      [0 1 -1 0 0 0 0];

internalField   nonuniform List<vector> 
8192
(
(-88.322 0 -2.88627339274e-10)
(-88.3219999996 0 -9.23022635077e-11)
(-88.3220000002 0 -7.19961139942e-11)
(-88.3220000004 0 -3.03166673613e-10)
(-88.3219999994 0 -6.58955434755e-11)
(-88.3219999996 0 -2.19564370353e-12)
(-88.3220000003 0 -2.68742990739e-12)
(-88.3219999999 0 1.32536501713e-10)
(-88.322 0 -2.82935664509e-10)
(-88.322 0 -5.93545296996e-10)
(-88.3219999999 0 -7.5085035987e-10)
(-88.322 0 3.8070665277e-10)
(-88.3220000002 0 6.77814411909e-10)
(-88.3220000001 0 -7.91057118383e-10)
(-88.3219999998 0 -6.36859069797e-10)
(-88.3219999999 0 3.80522270605e-10)
(-88.3219999998 0 3.39141418103e-10)
(-88.3219999999 0 7.12538468704e-10)
(-88.3220000003 0 -4.31300504494e-10)
(-88.3219999999 0 -6.04549068888e-10)
(-88.3219999996 0 2.63211929364e-10)
(-88.3220000004 0 3.97260302783e-10)
(-88.3220000004 0 -6.51488967181e-10)
(-88.3219999998 0 -5.92005188509e-10)
(-88.322 0 1.87575514936e-10)
(-88.3219999998 0 1.99165172742e-10)
(-88.3219999999 0 2.50782476217e-10)
(-88.3219999999 0 2.09265970057e-10)
(-88.3220000002 0 3.33537843735e-10)
(-88.3220000002 0 -1.74437204629e-10)
(-88.322 0 2.31098846714e-10)
(-88.3219999996 0 -7.197766921e-11)
(-88.3219999988 0 1.35682540397e-10)
(-88.322000002 0 5.71495567015e-10)
(-88.3220000028 0 -9.03139094809e-10)
(-88.3219999986 0 -6.55418272288e-10)
(-88.3219999995 0 -9.26514158973e-12)
(-88.3219999996 0 -5.84395216656e-10)
(-88.3219999985 0 1.68530624598e-10)
(-88.3220000006 0 1.90393093096e-10)
(-88.3220000001 0 -7.23745586295e-11)
(-88.3219999997 0 7.4614875158e-11)
(-88.3220000002 0 -1.56875897464e-11)
(-88.322 0 -1.56266956021e-11)
(-88.322 0 -6.15969000301e-11)
(-88.322 0 -4.12529326068e-11)
(-88.322 0 -2.15666802993e-11)
(-88.322 0 -2.00412273913e-11)
(-88.3220000001 0 3.34811264783e-11)
(-88.3219999998 0 -1.05768516534e-10)
(-88.3219999999 0 1.45555235905e-10)
(-88.3220000007 0 -7.4872251896e-11)
(-88.3219999994 0 -2.24377796823e-10)
(-88.3219999992 0 3.72058038844e-10)
(-88.3220000012 0 2.04712618408e-10)
(-88.3220000007 0 -2.03310220119e-10)
(-88.322 0 -2.74317044964e-11)
(-88.3219999998 0 -1.84133899861e-10)
(-88.3220000002 0 -4.71869657011e-11)
(-88.3219999991 0 -3.26458756532e-10)
(-88.3219999983 0 3.5790286927e-10)
(-88.3219999998 0 4.07624365489e-10)
(-88.322000001 0 3.68847935673e-10)
(-88.3220000014 0 -4.97280421263e-11)
(-88.3220000001 0 -3.61857263712e-10)
(-88.3219999998 0 -9.52870158332e-11)
(-88.3220000002 0 1.47230579985e-10)
(-88.3219999996 0 2.01719419081e-11)
(-88.322 0 2.85143012972e-10)
(-88.3220000002 0 -1.23653961969e-10)
(-88.3219999994 0 5.98448417077e-11)
(-88.3220000006 0 3.50658805021e-12)
(-88.3220000014 0 -9.79981667139e-12)
(-88.3220000008 0 -6.76538019987e-11)
(-88.3219999982 0 7.52230447284e-11)
(-88.3219999971 0 -2.63696933102e-10)
(-88.3220000021 0 -2.65992676666e-11)
(-88.3220000025 0 -1.95666390047e-10)
(-88.3219999979 0 -3.32928197045e-10)
(-88.3219999982 0 3.31773356497e-10)
(-88.3219999995 0 2.53175512884e-10)
(-88.3220000017 0 1.51706405069e-10)
(-88.3220000024 0 -3.58249359048e-10)
(-88.3219999988 0 -2.03196474687e-10)
(-88.3219999983 0 -6.77753403711e-11)
(-88.3220000015 0 -2.91826591781e-11)
(-88.3220000017 0 2.19407303482e-10)
(-88.3219999986 0 -7.07365441995e-11)
(-88.3219999985 0 4.65217714159e-10)
(-88.322 0 -1.86736092118e-10)
(-88.3220000001 0 3.13794412247e-10)
(-88.3219999999 0 3.08583967356e-10)
(-88.3220000006 0 -8.91952635218e-11)
(-88.322 0 -2.79153915664e-12)
(-88.3219999998 0 8.92639692447e-11)
(-88.3220000005 0 3.00058178646e-11)
(-88.3219999998 0 -2.53820262367e-10)
(-88.3220000003 0 -4.82732974806e-10)
(-88.322 0 6.00490546474e-10)
(-88.3219999995 0 6.76172757409e-10)
(-88.3220000002 0 1.00169886857e-11)
(-88.322 0 3.14084619767e-10)
(-88.322 0 -1.66062746838e-10)
(-88.322 0 -2.44213395492e-10)
(-88.322 0 1.86651113887e-10)
(-88.3220000001 0 -1.03028676841e-10)
(-88.322 0 8.57248875562e-11)
(-88.322 0 -2.21917337607e-10)
(-88.322 0 -4.05630624252e-10)
(-88.322 0 -3.52628179511e-10)
(-88.322 0 -3.42154453975e-10)
(-88.322 0 -4.29050393899e-10)
(-88.322 0 -3.89258482084e-10)
(-88.322 0 -7.44233140154e-11)
(-88.322 0 3.16015584395e-10)
(-88.3220000001 0 -1.0102143297e-10)
(-88.3219999998 0 6.45962730252e-11)
(-88.322 0 -1.16137672885e-10)
(-88.3220000001 0 -3.06930096791e-10)
(-88.3219999999 0 4.20083680814e-10)
(-88.322 0 -1.94012705992e-10)
(-88.3220000001 0 -1.51458891181e-10)
(-88.322 0 -3.81762826716e-10)
(-88.3219999999 0 9.5930778345e-10)
(-88.322 0 3.60439968958e-10)
(-88.3220000001 0 -8.2823127087e-10)
(-88.3220000002 0 -1.14180179346e-09)
(-88.322 0 -4.5996560682e-10)
(-88.3219999993 0 8.70002396368e-11)
(-88.3219999987 0 1.21764625628e-10)
(-88.322 0 -3.68671473107e-11)
(-88.3220000001 0 2.17182745625e-10)
(-88.3219999999 0 -1.8094035101e-10)
(-88.3220000001 0 1.63004282182e-10)
(-88.322 0 -5.13709736776e-11)
(-88.322 0 -1.24291761784e-10)
(-88.3220000002 0 2.50720778878e-10)
(-88.3219999998 0 5.51296000707e-10)
(-88.3220000003 0 7.11184601599e-10)
(-88.3220000002 0 -2.56567408725e-10)
(-88.322 0 -5.71019634512e-10)
(-88.3220000006 0 5.52250980274e-10)
(-88.3219999988 0 5.71481173125e-10)
(-88.3219999987 0 -4.04464966914e-10)
(-88.3220000002 0 -3.44561424982e-10)
(-88.322000001 0 -6.34200569963e-10)
(-88.3220000009 0 4.66188831117e-10)
(-88.3219999994 0 5.57900053905e-10)
(-88.3219999992 0 -2.20426188631e-10)
(-88.3219999998 0 -2.10160638686e-10)
(-88.3220000004 0 6.14271449044e-10)
(-88.3219999993 0 5.8860085472e-10)
(-88.3220000002 0 -9.87650099183e-11)
(-88.3220000001 0 -1.84426399345e-10)
(-88.3219999989 0 -1.00891542161e-10)
(-88.3220000008 0 1.16189919605e-10)
(-88.3220000008 0 -1.07641250001e-10)
(-88.3219999998 0 7.06603527498e-11)
(-88.3219999999 0 8.43167401569e-11)
(-88.3220000004 0 2.96628185319e-13)
(-88.322 0 -5.00843700511e-10)
(-88.322 0 4.75743935766e-10)
(-88.3220000002 0 6.73428219088e-10)
(-88.322 0 -4.56911988625e-10)
(-88.3220000003 0 -7.47988310719e-10)
(-88.322 0 8.76019208261e-10)
(-88.3219999997 0 4.42955088039e-10)
(-88.3219999999 0 -3.67436621129e-10)
(-88.322 0 -4.73939307037e-10)
(-88.322 0 2.17488764209e-10)
(-88.3220000005 0 -2.99793073697e-10)
(-88.3220000011 0 -7.17269857315e-11)
(-88.3220000003 0 -3.78659461056e-10)
(-88.3219999998 0 6.38017489535e-11)
(-88.3220000001 0 -6.52273034946e-10)
(-88.3219999999 0 -6.0679528339e-10)
(-88.3219999994 0 5.55460471363e-10)
(-88.3219999985 0 2.68731530908e-11)
(-88.322 0 -4.47750177273e-10)
(-88.3220000011 0 1.90222965383e-10)
(-88.3219999994 0 -4.70224136623e-10)
(-88.3219999999 0 4.39790456277e-10)
(-88.322 0 9.52685497835e-11)
(-88.3220000004 0 -3.64556686212e-10)
(-88.3220000012 0 -4.08376391648e-10)
(-88.3220000003 0 -4.34859535264e-10)
(-88.3219999981 0 -1.71577581435e-10)
(-88.3219999977 0 -2.16260297518e-10)
(-88.322000002 0 -1.69142414108e-10)
(-88.3220000029 0 8.98806408724e-11)
(-88.3220000002 0 6.44899256238e-11)
(-88.3219999999 0 8.91188488614e-11)
(-88.322 0 6.73420486154e-10)
(-88.3220000001 0 2.02415572287e-10)
(-88.322 0 -7.80504540395e-11)
(-88.322 0 1.75831698185e-10)
(-88.322 0 -2.1663469588e-10)
(-88.322 0 4.64064606554e-11)
(-88.322 0 1.69442881369e-11)
(-88.322 0 4.02869080699e-11)
(-88.322 0 3.91302865815e-11)
(-88.322 0 1.0317760909e-10)
(-88.3219999998 0 -4.01130341524e-11)
(-88.3219999997 0 1.77150980102e-10)
(-88.3220000005 0 -2.01224765426e-11)
(-88.3220000002 0 4.46723530055e-10)
(-88.3219999997 0 3.72527255233e-10)
(-88.322 0 -3.23997359754e-10)
(-88.322 0 -2.4211030015e-10)
(-88.322 0 -3.1947933372e-10)
(-88.322 0 5.47914760183e-10)
(-88.322 0 4.78206426588e-10)
(-88.322 0 -5.39928644034e-10)
(-88.3219999999 0 -5.0416844038e-10)
(-88.322 0 3.36450158153e-10)
(-88.322 0 5.47995939893e-10)
(-88.322 0 -2.27867465745e-10)
(-88.322 0 6.06084175854e-10)
(-88.3219999995 0 -1.96139292151e-10)
(-88.3219999999 0 6.14166457189e-11)
(-88.3220000007 0 -1.02658864857e-10)
(-88.3219999996 0 -3.01412993939e-10)
(-88.3219999999 0 1.15136817861e-10)
(-88.3220000016 0 -9.78374161304e-11)
(-88.3219999988 0 6.79935254917e-12)
(-88.3219999981 0 -9.90439029824e-11)
(-88.3220000018 0 4.7846856952e-11)
(-88.3220000023 0 1.0043544873e-10)
(-88.3219999976 0 -8.27102721019e-11)
(-88.3219999977 0 3.88683902999e-10)
(-88.3220000024 0 -3.50886477285e-11)
(-88.3220000017 0 4.46532458113e-11)
(-88.3219999988 0 -9.09137443255e-11)
(-88.3219999998 0 1.12521060112e-13)
(-88.3220000005 0 -1.05713193661e-10)
(-88.3220000002 0 2.23863340405e-10)
(-88.3219999997 0 4.36582588802e-10)
(-88.3220000005 0 3.50726658426e-10)
(-88.3220000013 0 3.71466710559e-10)
(-88.3219999976 0 2.92014572517e-10)
(-88.3219999989 0 5.54286813128e-10)
(-88.3220000019 0 1.96623976534e-10)
(-88.3219999998 0 -3.84152714211e-10)
(-88.3220000002 0 1.09776413391e-10)
(-88.3219999992 0 -2.2901124129e-10)
(-88.3219999989 0 2.35045571281e-10)
(-88.3220000016 0 6.11934456682e-10)
(-88.3220000009 0 -5.69547660874e-10)
(-88.3220000001 0 -1.99940526463e-10)
(-88.3219999997 0 4.49243158089e-10)
(-88.3219999996 0 4.11723643266e-11)
(-88.3219999998 0 -5.1110157739e-10)
(-88.3219999995 0 -1.13788252216e-09)
(-88.3219999997 0 8.66581668352e-10)
(-88.3220000001 0 1.04737656711e-09)
(-88.322 0 8.1579267359e-10)
(-88.3220000005 0 -3.24717661427e-10)
(-88.3220000001 0 -1.47025604282e-10)
(-88.322 0 2.7918006806e-10)
(-88.3220000004 0 -4.36341850036e-11)
(-88.322 0 -6.78393684446e-11)
(-88.3219999996 0 -7.33355612221e-12)
(-88.322 0 -6.28974362465e-12)
(-88.322 0 4.38522543078e-11)
(-88.322 0 1.59223940348e-11)
(-88.322 0 -1.05566878758e-11)
(-88.3220000001 0 7.92220080281e-11)
(-88.3220000002 0 -2.99654389239e-10)
(-88.3219999996 0 -3.13361903259e-10)
(-88.3219999998 0 5.44029592471e-11)
(-88.3220000003 0 -2.92665275584e-11)
(-88.322 0 3.9221550546e-11)
(-88.3220000002 0 1.80521454276e-10)
(-88.3219999994 0 1.70847695924e-10)
(-88.3219999994 0 -2.99892139549e-11)
(-88.3220000016 0 -5.31027818151e-12)
(-88.3220000012 0 3.71741866374e-11)
(-88.321999998 0 4.00551076704e-11)
(-88.3219999984 0 9.53680959899e-11)
(-88.3220000005 0 -1.28231674061e-10)
(-88.3220000001 0 1.49629901915e-10)
(-88.322 0 6.58486694864e-12)
(-88.3219999999 0 2.81095201863e-10)
(-88.3220000006 0 2.91318189816e-10)
(-88.3220000014 0 3.94860451192e-10)
(-88.3219999994 0 -3.8019230409e-11)
(-88.3219999995 0 1.46794199834e-10)
(-88.3220000005 0 4.24295932534e-10)
(-88.3220000001 0 -3.77297707566e-11)
(-88.322 0 -5.69001933017e-10)
(-88.3219999998 0 -7.92046730661e-10)
(-88.3220000002 0 2.41773803819e-10)
(-88.3219999997 0 9.36625878748e-10)
(-88.3219999999 0 -1.14069255051e-09)
(-88.3220000004 0 -2.91103280505e-10)
(-88.3219999999 0 1.3987209471e-10)
(-88.322 0 4.11982460603e-10)
(-88.322 0 -1.81399542518e-10)
(-88.322 0 2.51415469189e-10)
(-88.322 0 8.22198508503e-11)
(-88.322 0 3.44800284199e-10)
(-88.322 0 -4.80490995713e-11)
(-88.3220000002 0 6.46976527003e-10)
(-88.3219999997 0 5.16817468632e-10)
(-88.3219999996 0 -4.78312418679e-10)
(-88.3220000004 0 -1.4915927683e-10)
(-88.3220000001 0 3.31283394043e-10)
(-88.3220000008 0 1.53990238089e-11)
(-88.3219999992 0 3.7634649707e-10)
(-88.3219999983 0 -4.65978358478e-10)
(-88.3220000016 0 -8.89197463966e-11)
(-88.322000002 0 -2.53067331955e-10)
(-88.3219999991 0 2.0922823721e-10)
(-88.3219999998 0 1.11761776127e-10)
(-88.3219999998 0 -2.98597506099e-10)
(-88.3220000001 0 8.31700862931e-10)
(-88.3219999992 0 7.20535418386e-10)
(-88.3219999984 0 4.23153531152e-10)
(-88.3220000002 0 1.70020362808e-10)
(-88.3220000005 0 -3.5321664198e-11)
(-88.3220000002 0 -1.30779659459e-10)
(-88.3219999989 0 -2.49754317929e-10)
(-88.322 0 4.62947553048e-10)
(-88.3220000006 0 6.64356006688e-10)
(-88.3219999999 0 1.15837437475e-11)
(-88.3219999999 0 4.41904259724e-10)
(-88.322 0 3.21585664801e-10)
(-88.322 0 -4.6945556847e-10)
(-88.3220000001 0 2.50789299516e-11)
(-88.3219999998 0 9.88342566876e-11)
(-88.3220000003 0 -6.0808908598e-11)
(-88.3220000004 0 2.22823735836e-10)
(-88.3219999998 0 2.0306010601e-10)
(-88.3219999998 0 -5.93792184207e-10)
(-88.3219999998 0 5.22356043304e-10)
(-88.3219999996 0 4.30559907114e-10)
(-88.3219999997 0 5.74832082785e-10)
(-88.3220000004 0 1.19125418279e-10)
(-88.3220000004 0 -7.71016609978e-10)
(-88.3219999999 0 -2.6526685277e-10)
(-88.3219999998 0 9.49012165728e-10)
(-88.3219999998 0 1.14352510944e-09)
(-88.3220000004 0 -6.82399955717e-10)
(-88.3219999999 0 -6.5649197645e-10)
(-88.3219999998 0 -4.89781161115e-10)
(-88.3219999998 0 -1.19525035983e-10)
(-88.321999999 0 1.23129036165e-10)
(-88.3219999997 0 -5.12393193212e-10)
(-88.3220000014 0 5.7560832034e-10)
(-88.3220000001 0 8.16401380246e-10)
(-88.321999999 0 -1.54835014537e-10)
(-88.3220000021 0 -3.72718601269e-10)
(-88.3220000008 0 1.05117004248e-10)
(-88.3219999994 0 1.94839928167e-10)
(-88.3220000002 0 1.26181755568e-10)
(-88.3219999988 0 -1.42913813654e-10)
(-88.3220000004 0 -6.95951325104e-12)
(-88.322 0 -5.87088004896e-11)
(-88.3219999999 0 4.73626536762e-12)
(-88.3220000004 0 7.25153871355e-11)
(-88.3219999995 0 5.39539251069e-11)
(-88.322 0 -3.04588957374e-11)
(-88.322 0 2.41713612752e-11)
(-88.322 0 1.31950857251e-11)
(-88.322 0 1.05307696901e-11)
(-88.322 0 8.16502970098e-12)
(-88.3220000002 0 -9.59720759914e-11)
(-88.3219999998 0 3.23875802092e-10)
(-88.3220000002 0 -2.43019248165e-10)
(-88.3220000002 0 -8.17449817043e-11)
(-88.3219999994 0 -2.56312201818e-11)
(-88.3220000002 0 1.45357596319e-10)
(-88.3220000001 0 3.08164736114e-10)
(-88.3219999998 0 -4.34494801964e-10)
(-88.3220000012 0 -5.08291702129e-10)
(-88.3220000001 0 3.05450679956e-10)
(-88.3219999994 0 3.96156669106e-10)
(-88.3220000007 0 5.56815128953e-11)
(-88.3219999981 0 4.31336524624e-10)
(-88.3219999978 0 -9.7237719335e-11)
(-88.3220000002 0 5.25946960047e-10)
(-88.3220000008 0 -2.48980935685e-10)
(-88.322000001 0 -8.12717659016e-11)
(-88.322000001 0 -2.70688981725e-10)
(-88.3220000005 0 5.26722940458e-10)
(-88.3219999989 0 2.13759372182e-11)
(-88.3219999982 0 -3.38679731197e-10)
(-88.3220000014 0 5.95081545518e-11)
(-88.3220000004 0 3.63637066883e-11)
(-88.3219999989 0 5.59129416196e-11)
(-88.3220000019 0 -1.03831121171e-10)
(-88.3220000006 0 6.192880509e-11)
(-88.3219999989 0 -1.93264211313e-10)
(-88.3220000002 0 -1.72162643918e-10)
(-88.3219999998 0 4.07388176875e-10)
(-88.3219999996 0 -3.838197471e-10)
(-88.3220000013 0 -3.14849035502e-10)
(-88.3219999992 0 -5.99142745068e-11)
(-88.3219999983 0 -1.23145522266e-10)
(-88.3219999999 0 2.14014743191e-11)
(-88.3220000009 0 -2.94228563714e-10)
(-88.3220000022 0 -1.46906806803e-10)
(-88.322 0 4.76948875038e-11)
(-88.3219999981 0 -4.76219842028e-12)
(-88.3219999984 0 -3.13784705595e-12)
(-88.3220000013 0 -4.2333949703e-11)
(-88.322000002 0 3.27042088986e-12)
(-88.322 0 -4.73987807931e-11)
(-88.321999999 0 -7.82120716127e-11)
(-88.3219999989 0 5.05739466789e-11)
(-88.3220000007 0 -3.65861802785e-10)
(-88.3219999996 0 -3.76922166803e-10)
(-88.3219999988 0 -6.28873594435e-10)
(-88.3220000009 0 3.54858618794e-10)
(-88.3220000019 0 -4.88326272495e-10)
(-88.322 0 -3.88115292468e-10)
(-88.3219999989 0 8.61023646778e-10)
(-88.3219999999 0 2.15024807952e-10)
(-88.3220000005 0 -1.19575861868e-10)
(-88.3220000005 0 -5.06863093673e-10)
(-88.3219999996 0 -1.47084830216e-10)
(-88.3219999999 0 6.53561868384e-10)
(-88.3220000001 0 -2.13916711068e-10)
(-88.3219999999 0 -7.3660191892e-11)
(-88.3220000001 0 6.26887079411e-11)
(-88.322 0 9.99095546897e-11)
(-88.3219999999 0 -2.31852660489e-10)
(-88.322 0 7.54406991788e-11)
(-88.322 0 4.45937299706e-11)
(-88.3220000001 0 1.38449059881e-11)
(-88.3219999995 0 -8.84100404586e-12)
(-88.322 0 -5.1229259173e-11)
(-88.3220000005 0 3.40132881882e-11)
(-88.3219999999 0 -4.82306579453e-11)
(-88.3219999997 0 1.3939962922e-10)
(-88.3220000002 0 -5.33373055121e-11)
(-88.3220000004 0 6.2645623628e-11)
(-88.3219999998 0 -6.60784768598e-11)
(-88.3220000001 0 5.02582353688e-11)
(-88.3220000002 0 3.18967350118e-10)
(-88.3219999997 0 -2.56479993895e-12)
(-88.3219999998 0 1.06488235927e-10)
(-88.3220000002 0 4.91859082564e-10)
(-88.3219999999 0 -5.43986960473e-10)
(-88.3219999996 0 -5.32385659257e-10)
(-88.3219999997 0 2.84106861972e-11)
(-88.3220000002 0 2.83402341179e-10)
(-88.3220000006 0 -1.02000231383e-10)
(-88.322 0 1.04964076211e-10)
(-88.3220000006 0 2.41207127027e-10)
(-88.3219999998 0 -4.30205219396e-10)
(-88.3219999998 0 -6.95296301671e-10)
(-88.3219999999 0 1.84568534643e-10)
(-88.3220000002 0 -4.45543384064e-10)
(-88.3219999999 0 -3.60803162299e-10)
(-88.3220000001 0 4.65171786389e-10)
(-88.3220000005 0 -4.67423355832e-11)
(-88.3219999985 0 -1.23371341707e-10)
(-88.3220000008 0 9.56565828876e-11)
(-88.322000002 0 -2.04820080733e-10)
(-88.3219999992 0 -1.0231703174e-10)
(-88.3219999993 0 4.11725664333e-10)
(-88.3219999996 0 -5.20702483064e-10)
(-88.322 0 -3.66236257698e-10)
(-88.322 0 -5.59039714491e-10)
(-88.3219999998 0 2.3811284831e-11)
(-88.3220000002 0 4.96216189491e-10)
(-88.322 0 2.29424931749e-11)
(-88.3219999999 0 -3.96735324473e-10)
(-88.3219999998 0 -7.66008649624e-10)
(-88.3220000004 0 2.30980621426e-10)
(-88.322 0 1.89633050326e-10)
(-88.3219999996 0 2.70973208144e-10)
(-88.3220000004 0 -2.74214767463e-10)
(-88.3219999998 0 -3.15583504669e-10)
(-88.3220000002 0 8.27241114165e-11)
(-88.322 0 -5.39760352772e-10)
(-88.322 0 -5.19970140544e-10)
(-88.3220000003 0 -9.05489194706e-11)
(-88.3219999994 0 4.27363686812e-10)
(-88.3219999997 0 -9.02758467459e-11)
(-88.3220000014 0 -1.08205293732e-10)
(-88.3220000017 0 -1.23277643879e-10)
(-88.3219999989 0 -5.66087748971e-11)
(-88.3219999979 0 2.51552733937e-10)
(-88.3220000002 0 -6.23960102921e-11)
(-88.3220000014 0 1.09540613765e-10)
(-88.3219999999 0 -3.9392446733e-11)
(-88.3219999992 0 -2.82752600615e-11)
(-88.3220000006 0 5.04088373344e-11)
(-88.322 0 -1.5992381614e-11)
(-88.3219999994 0 -1.39712085784e-11)
(-88.3220000002 0 -5.35077417629e-11)
(-88.3220000001 0 -2.28851736056e-11)
(-88.3220000003 0 5.26901934914e-11)
(-88.3219999997 0 -2.13007613536e-10)
(-88.3220000002 0 6.85836542544e-11)
(-88.322 0 1.39295377417e-10)
(-88.3219999994 0 -1.86691942367e-10)
(-88.3220000003 0 -2.3729256018e-10)
(-88.3220000001 0 1.46015969441e-10)
(-88.3219999998 0 6.43811571559e-10)
(-88.3220000006 0 6.22691374956e-10)
(-88.3220000003 0 -2.73657686855e-10)
(-88.3219999999 0 -3.98649202767e-10)
(-88.3219999998 0 -2.76556767941e-10)
(-88.3219999995 0 -4.87308285876e-10)
(-88.3219999998 0 1.83082329795e-10)
(-88.3219999991 0 -4.63831757465e-10)
(-88.3219999992 0 3.58422950875e-10)
(-88.3220000013 0 -2.0986448521e-10)
(-88.3220000005 0 1.63146992544e-10)
(-88.3220000003 0 -3.27904681253e-10)
(-88.322 0 3.87805469435e-11)
(-88.322 0 -5.56670317688e-11)
(-88.322 0 8.60942044118e-12)
(-88.322 0 -8.16475982715e-11)
(-88.322 0 9.75507922214e-11)
(-88.322 0 4.91878348233e-11)
(-88.322 0 -1.03825281165e-10)
(-88.3220000001 0 1.89966306684e-10)
(-88.322 0 1.65227125363e-10)
(-88.322 0 -4.92252414628e-10)
(-88.322 0 5.8086591633e-10)
(-88.322 0 5.42098688158e-10)
(-88.3220000001 0 6.21287315607e-11)
(-88.322 0 1.22828441405e-10)
(-88.322 0 -5.13473950701e-11)
(-88.322 0 1.00003243859e-10)
(-88.322 0 -1.10820505633e-11)
(-88.322 0 -2.64318107463e-12)
(-88.322 0 2.07139247837e-11)
(-88.322 0 -2.96283984884e-11)
(-88.322 0 1.50594782351e-11)
(-88.322 0 -2.44710619446e-11)
(-88.322 0 2.04124523901e-10)
(-88.322 0 -8.44630195862e-11)
(-88.322 0 -4.73161523032e-11)
(-88.322 0 1.08220329831e-10)
(-88.322 0 -2.35000937505e-11)
(-88.322 0 5.5250960801e-11)
(-88.322 0 -2.36386973991e-10)
(-88.322 0 5.59418123182e-11)
(-88.322 0 -1.16812815995e-10)
(-88.322 0 -6.65477831136e-12)
(-88.322 0 1.86863806604e-10)
(-88.3220000004 0 -2.09728810379e-10)
(-88.3219999999 0 1.84737433191e-10)
(-88.3219999996 0 -2.24091223347e-10)
(-88.3220000001 0 -7.59134021543e-10)
(-88.322 0 1.96931581842e-10)
(-88.322 0 3.38638190512e-10)
(-88.322 0 -4.72875491166e-11)
(-88.322 0 -9.75567386491e-11)
(-88.322 0 2.36554435334e-10)
(-88.322 0 -1.09583046564e-10)
(-88.322 0 -3.97986100618e-11)
(-88.322 0 -3.44917128079e-11)
(-88.322 0 -7.38634605226e-11)
(-88.322 0 1.71182689276e-10)
(-88.3219999998 0 -9.62168636654e-12)
(-88.3220000004 0 2.32273945543e-10)
(-88.3220000005 0 -6.34247787869e-11)
(-88.3219999995 0 -8.85250971908e-11)
(-88.3219999986 0 -2.00915471207e-10)
(-88.3219999989 0 7.4882762684e-11)
(-88.322000002 0 1.42043143861e-10)
(-88.3220000023 0 -2.38981950762e-10)
(-88.3219999996 0 -1.13080340287e-10)
(-88.322 0 -2.42818094225e-11)
(-88.3219999992 0 -1.33607504749e-10)
(-88.3219999998 0 7.09672075562e-11)
(-88.3219999993 0 6.27783304182e-11)
(-88.3219999992 0 -1.06135000679e-09)
(-88.3220000006 0 -9.50229650027e-10)
(-88.322 0 -2.44646819307e-10)
(-88.3219999996 0 1.73288967723e-10)
(-88.3220000001 0 1.26393814366e-10)
(-88.3219999999 0 -1.88723020877e-10)
(-88.3219999999 0 -6.33577264071e-11)
(-88.3219999997 0 9.17318971573e-11)
(-88.3219999999 0 6.69762008466e-11)
(-88.3220000003 0 -1.56102217317e-10)
(-88.3219999999 0 -1.7993300296e-10)
(-88.322 0 -3.17723662527e-11)
(-88.322 0 -9.14537146973e-11)
(-88.322 0 2.28796093918e-11)
(-88.3219999999 0 -3.79013871475e-11)
(-88.3220000002 0 -2.00456407292e-11)
(-88.3220000001 0 -2.23233321682e-11)
(-88.3219999998 0 -3.619247844e-11)
(-88.322 0 -4.69235069444e-11)
(-88.322 0 -4.64172222065e-11)
(-88.322 0 -3.26692272001e-12)
(-88.322 0 5.68695671951e-11)
(-88.322 0 -1.73572701729e-10)
(-88.3219999998 0 -7.57577302654e-11)
(-88.3219999998 0 5.60287230997e-10)
(-88.322 0 3.84597377357e-10)
(-88.3220000001 0 -4.89563629187e-10)
(-88.3220000001 0 -3.59543677662e-10)
(-88.322 0 -1.02625606132e-10)
(-88.3219999998 0 7.92982508548e-11)
(-88.3220000003 0 -1.92648416554e-10)
(-88.3220000004 0 1.49536403194e-10)
(-88.322 0 -1.56906400805e-10)
(-88.3220000002 0 -4.13219044022e-10)
(-88.3219999996 0 -3.35662921457e-10)
(-88.321999999 0 3.14821521471e-10)
(-88.3220000017 0 -4.51504466169e-10)
(-88.3220000017 0 -4.84946706292e-10)
(-88.321999999 0 -4.26302181061e-10)
(-88.3219999998 0 4.69212741171e-10)
(-88.3219999993 0 3.40060158585e-10)
(-88.3219999991 0 -3.86212023009e-10)
(-88.3220000003 0 -2.42773511825e-10)
(-88.322 0 5.59956823836e-10)
(-88.322 0 1.33470317907e-10)
(-88.3220000001 0 -3.87613879311e-10)
(-88.322 0 -6.03351775688e-10)
(-88.322 0 2.40706202505e-10)
(-88.3220000002 0 -2.43873320258e-10)
(-88.3219999998 0 -1.07886069668e-10)
(-88.3219999996 0 -5.26685538807e-10)
(-88.322 0 4.22613515334e-10)
(-88.3220000002 0 -1.48589029228e-10)
(-88.322 0 7.33906182772e-11)
(-88.3220000007 0 3.44324417553e-10)
(-88.3219999998 0 -4.44624498394e-10)
(-88.3219999992 0 -1.03066178205e-09)
(-88.3220000011 0 -1.23698348313e-09)
(-88.3220000008 0 -4.66276971406e-10)
(-88.3219999995 0 1.07708297865e-09)
(-88.3219999998 0 6.15262195259e-10)
(-88.3219999992 0 -7.80926663741e-11)
(-88.3219999994 0 -7.71131583153e-10)
(-88.3220000014 0 8.11763320797e-10)
(-88.3220000012 0 -4.44416504311e-11)
(-88.3219999996 0 -1.94424881049e-10)
(-88.3219999993 0 -4.46308538947e-11)
(-88.322 0 1.10315190611e-10)
(-88.3220000008 0 4.70087597439e-11)
(-88.3220000004 0 3.03117584439e-10)
(-88.3219999995 0 -2.43995452087e-10)
(-88.3219999998 0 2.15463895216e-10)
(-88.3220000006 0 -2.80880329719e-10)
(-88.3220000005 0 2.69107174146e-10)
(-88.3219999997 0 3.05048074547e-10)
(-88.322 0 -2.50343871002e-10)
(-88.3219999998 0 -4.3638151456e-10)
(-88.322 0 -1.28242686846e-10)
(-88.3220000001 0 -4.89308208967e-10)
(-88.322 0 -4.57587952526e-10)
(-88.322 0 -1.2553020104e-10)
(-88.322 0 7.28618382474e-11)
(-88.322 0 4.93450951393e-11)
(-88.3219999999 0 1.19401728343e-10)
(-88.3219999999 0 -3.88309663101e-10)
(-88.3220000004 0 -7.73754645017e-10)
(-88.3220000002 0 3.50709333754e-10)
(-88.3219999985 0 3.37903808672e-10)
(-88.3219999991 0 8.05890643759e-10)
(-88.3220000022 0 -5.13107432418e-10)
(-88.3220000014 0 -5.087342073e-10)
(-88.3219999992 0 3.28843693596e-10)
(-88.3219999992 0 3.13190278401e-10)
(-88.3220000001 0 3.10226891098e-10)
(-88.3219999999 0 1.02061603709e-10)
(-88.322 0 3.63706456489e-10)
(-88.3220000011 0 1.04102394988e-10)
(-88.3220000003 0 5.44694489389e-11)
(-88.3219999985 0 9.89711969059e-11)
(-88.3220000002 0 -1.51256959169e-10)
(-88.3220000015 0 -4.0361692283e-10)
(-88.3220000004 0 5.74684908036e-10)
(-88.3219999979 0 8.65314530122e-10)
(-88.3219999981 0 5.60032198636e-10)
(-88.3220000017 0 7.81781666244e-10)
(-88.3220000011 0 -5.7126442755e-10)
(-88.3219999982 0 -5.77733795048e-11)
(-88.3219999992 0 4.57871304659e-11)
(-88.3220000019 0 -7.74037081424e-11)
(-88.3220000014 0 6.53054008967e-11)
(-88.3219999987 0 -1.17079202612e-10)
(-88.3219999993 0 5.67545523351e-11)
(-88.3220000006 0 -1.27879488236e-10)
(-88.3220000006 0 -3.22486006039e-10)
(-88.3219999988 0 2.59286344744e-10)
(-88.321999999 0 3.67130296078e-10)
(-88.3220000011 0 4.92158307206e-10)
(-88.3219999994 0 -3.56474099163e-10)
(-88.3220000005 0 -3.58848149811e-10)
(-88.3220000012 0 8.04427099527e-10)
(-88.3220000004 0 1.32314583923e-10)
(-88.3220000009 0 1.22635473634e-10)
(-88.3219999978 0 3.63907442752e-10)
(-88.3219999975 0 5.75033605286e-10)
(-88.3220000022 0 7.07286820835e-10)
(-88.3220000018 0 -2.65353516431e-10)
(-88.3219999979 0 -4.57940147761e-10)
(-88.3219999978 0 -1.96821012688e-10)
(-88.3220000012 0 4.64616276604e-10)
(-88.3220000006 0 4.48587684222e-10)
(-88.3219999993 0 3.1260378617e-10)
(-88.322 0 -2.21754491273e-10)
(-88.3219999998 0 -2.31190398044e-10)
(-88.3220000004 0 1.55516431807e-10)
(-88.322 0 -2.65078040331e-11)
(-88.3219999998 0 -8.33061439473e-11)
(-88.3219999998 0 -1.36842146485e-10)
(-88.3219999991 0 1.59197465778e-10)
(-88.3220000009 0 1.2888298573e-10)
(-88.3220000015 0 4.69135179133e-11)
(-88.3219999997 0 -4.33666356549e-11)
(-88.322 0 -3.86505445755e-10)
(-88.3220000005 0 -2.20073265289e-11)
(-88.3219999995 0 -1.00889768847e-10)
(-88.321999999 0 -1.25804697328e-10)
(-88.3219999995 0 9.06728898226e-11)
(-88.3219999999 0 -1.3347926239e-10)
(-88.3220000008 0 -1.19771212593e-11)
(-88.3220000018 0 -5.09776706881e-12)
(-88.3219999987 0 -7.17716132015e-11)
(-88.3219999978 0 2.03320680469e-10)
(-88.3219999989 0 -4.22936731847e-12)
(-88.3220000016 0 -3.85162577326e-10)
(-88.3220000027 0 -2.44882870697e-10)
(-88.3219999985 0 3.40732375811e-10)
(-88.3219999984 0 4.97752751537e-10)
(-88.322 0 1.00243902173e-10)
(-88.3220000001 0 -4.72524113146e-11)
(-88.3220000001 0 1.96633424802e-10)
(-88.3220000004 0 -1.05373812753e-10)
(-88.3220000006 0 1.69550836752e-10)
(-88.3220000001 0 4.19411403368e-10)
(-88.322 0 3.32015092858e-10)
(-88.3219999999 0 -3.02861183184e-10)
(-88.3220000004 0 5.5645966307e-10)
(-88.3219999993 0 2.64124668279e-10)
(-88.3219999989 0 6.7224007361e-10)
(-88.3220000001 0 -5.24038811949e-10)
(-88.3220000016 0 -3.43664934674e-10)
(-88.3220000007 0 5.37252637259e-10)
(-88.3219999992 0 1.94483107131e-10)
(-88.322 0 -5.75152364383e-10)
(-88.3220000001 0 -1.27313644468e-10)
(-88.3220000002 0 3.68715451322e-10)
(-88.322 0 6.32283812832e-10)
(-88.322 0 -4.26975322212e-10)
(-88.3220000009 0 2.42537482886e-10)
(-88.3219999991 0 7.81489915228e-11)
(-88.3219999982 0 5.40748638485e-10)
(-88.3219999996 0 -4.5119574876e-10)
(-88.3220000017 0 2.8589578107e-11)
(-88.3220000018 0 1.72387720854e-10)
(-88.3219999983 0 -6.26112752267e-10)
(-88.3219999989 0 1.19526440916e-10)
(-88.3220000005 0 8.25309266454e-10)
(-88.3220000006 0 7.90636607361e-10)
(-88.322 0 5.05728397637e-10)
(-88.3219999989 0 -4.45407736335e-10)
(-88.3220000014 0 -6.28426034011e-10)
(-88.3220000014 0 5.30635053574e-10)
(-88.3219999994 0 5.35313658559e-10)
(-88.3219999996 0 -4.39071234646e-10)
(-88.322 0 -5.43613068154e-10)
(-88.3219999999 0 1.42441602033e-10)
(-88.322 0 -1.79209895275e-10)
(-88.322 0 -4.56535331709e-11)
(-88.322 0 1.41132534035e-10)
(-88.322 0 -2.52174536382e-10)
(-88.322 0 1.81334405913e-10)
(-88.322 0 -1.40980988014e-10)
(-88.322 0 1.50123788413e-10)
(-88.322 0 -2.49100014321e-10)
(-88.322 0 -1.59578952599e-10)
(-88.3220000002 0 -2.36978579183e-10)
(-88.3220000006 0 1.71861503031e-11)
(-88.3219999999 0 3.92888343429e-10)
(-88.3219999995 0 1.87656500809e-10)
(-88.3220000002 0 -1.50545079301e-10)
(-88.3219999997 0 -3.10567139937e-10)
(-88.322 0 1.65677646957e-10)
(-88.3220000002 0 2.17115937139e-10)
(-88.3219999997 0 -2.73149253458e-10)
(-88.322 0 4.41825928647e-10)
(-88.322 0 7.70908328268e-10)
(-88.3220000001 0 -3.26661362547e-10)
(-88.3219999997 0 -3.47276146862e-10)
(-88.3219999996 0 -8.34414269927e-10)
(-88.3220000006 0 4.19806731375e-10)
(-88.322 0 4.63760239525e-10)
(-88.3219999998 0 -3.56780889891e-10)
(-88.3220000002 0 -3.21023209394e-10)
(-88.3219999999 0 -3.67148298616e-10)
(-88.322 0 -2.39600483213e-10)
(-88.322 0 -2.4305575759e-10)
(-88.322 0 -1.22094889576e-10)
(-88.322 0 1.29891688843e-10)
(-88.322 0 1.35971906424e-10)
(-88.3219999997 0 -1.58410482197e-10)
(-88.3220000004 0 3.94265559356e-10)
(-88.3220000003 0 -3.19072401446e-10)
(-88.3219999995 0 -7.78102887731e-10)
(-88.322 0 -6.07070286004e-10)
(-88.3219999997 0 -1.62937529307e-10)
(-88.3220000002 0 -3.27254959163e-11)
(-88.3220000005 0 -4.92998792264e-10)
(-88.3219999998 0 2.38860340218e-10)
(-88.322 0 3.85938143232e-10)
(-88.322 0 -3.88137776186e-10)
(-88.3220000004 0 7.93680421519e-11)
(-88.3220000002 0 -5.42035279983e-10)
(-88.3219999996 0 -4.73591303547e-10)
(-88.322 0 1.66329323525e-10)
(-88.3219999998 0 -8.58181438216e-10)
(-88.322 0 -5.26382925521e-10)
(-88.3219999999 0 -5.24898136237e-10)
(-88.3220000008 0 2.33115474866e-10)
(-88.3220000007 0 2.97068794117e-10)
(-88.3219999984 0 -6.20732593398e-10)
(-88.321999999 0 -1.42870172957e-10)