/*--------------------------------*- C++ -*----------------------------------*\
  =========                 |
  \\      /  F ield         | OpenFOAM: The Open Source CFD Toolbox
   \\    /   O peration     | Website:  https://openfoam.org
    \\  /    A nd           | Version:  6
     \\/     M anipulation  |
\*---------------------------------------------------------------------------*/
FoamFile
{
    version     2.0;
    format      ascii;
    class       volScalarField;
    location    "3e-08";
    object      C6H14;
}
// * * * * * * * * * * * * * * * * * * * * * * * * * * * * * * * * * * * * * //

dimensions      [0 0 0 0 0 0 0];

internalField   nonuniform List<scalar> 
12288
(
0.001
0.001
0.001
0.001
0.001
0.001
0.001
0.001
0.001
0.001
0.001
0.001
0.001
0.001
0.001
0.001
0.001
0.001
0.001
0.001
0.001
0.001
0.001
0.001
0.001
0.001
0.001
0.001
0.001
0.001
0.001
0.001
0.001
0.001
0.001
0.001
0.001
0.001
0.001
0.001
0.001
0.001
0.001
0.001
0.001
0.001
0.001
0.001
0.001
0.001
0.001
0.001
0.001
0.001
0.001
0.001
0.001
0.001
0.001
0.001
0.001
0.001
0.001
0.001
0.001
0.001
0.001
0.001
0.001
0.001
0.001
0.001
0.001
0.001
0.001
0.001
0.001
0.001
0.001
0.001
0.001
0.001
0.001
0.001
0.001
0.001
0.001
0.001
0.001
0.001
0.001
0.001
0.001
0.001
0.001
0.001
0.001
0.001
0.001
0.001
0.001
0.001
0.001
0.001
0.001
0.001
0.001
0.001
0.001
0.001
0.001
0.001
0.001
0.001
0.001
0.001
0.001
0.001
0.001
0.001
0.001
0.001
0.001
0.001
0.001
0.001
0.001
0.001
0.001
0.001
0.001
0.001
0.001
0.001
0.001
0.001
0.001
0.001
0.001
0.001
0.001
0.001
0.001
0.001
0.001
0.001
0.001
0.001
0.001
0.001
0.001
0.001
0.001
0.001
0.001
0.001
0.001
0.001
0.001
0.001
0.001
0.001
0.001
0.001
0.001
0.001
0.001
0.001
0.001
0.001
0.001
0.001
0.001
0.001
0.001
0.001
0.001
0.001
0.001
0.001
0.001
0.001
0.001
0.001
0.001
0.001
0.001
0.001
0.001
0.001
0.001
0.001
0.001
0.001
0.001
0.001
0.001
0.001
0.001
0.001
0.001
0.001
0.001
0.001
0.001
0.001
0.001
0.001
0.001
0.001
0.001
0.001
0.001
0.001
0.001
0.001
0.001
0.001
0.001
0.001
0.001
0.001
0.001
0.001
0.001
0.001
0.001
0.001
0.001
0.001
0.001
0.001
0.001
0.001
0.001
0.001
0.001
0.001
0.001
0.001
0.001
0.001
0.001
0.001
0.001
0.001
0.001
0.001
0.001
0.001
0.001
0.001
0.001
0.001
0.001
0.001
0.001
0.001
0.001
0.001
0.001
0.001
0.001
0.001
0.001
0.001
0.001
0.001
0.001
0.001
0.001
0.001
0.001
0.001
0.001
0.001
0.001
0.001
0.001
0.001
0.001
0.001
0.001
0.001
0.001
0.001
0.001
0.001
0.001
0.001
0.001
0.001
0.001
0.001
0.001
0.001
0.001
0.001
0.001
0.001
0.001
0.001
0.001
0.001
0.001
0.001
0.001
0.001
0.001
0.001
0.001
0.001
0.001
0.001
0.001
0.001
0.001
0.001
0.001
0.001
0.001
0.001
0.001
0.001
0.001
0.001
0.001
0.001
0.001
0.001
0.001
0.001
0.001
0.001
0.001
0.001
0.001
0.001
0.001
0.001
0.001
0.001
0.001
0.001
0.001
0.001
0.001
0.001
0.001
0.001
0.001
0.001
0.001
0.001
0.001
0.001
0.001
0.001
0.001
0.001
0.001
0.001
0.001
0.001
0.001
0.001
0.001
0.001
0.001
0.001
0.001
0.001
0.001
0.001
0.001
0.001
0.001
0.001
0.001
0.001
0.001
0.001
0.001
0.001
0.001
0.001
0.001
0.001
0.001
0.001
0.001
0.001
0.001
0.001
0.001
0.001
0.001
0.001
0.001
0.001
0.001
0.001
0.001
0.001
0.001
0.001
0.001
0.001
0.001
0.001
0.001
0.001
0.001
0.001
0.001
0.001
0.001
0.001
0.001
0.001
0.001
0.001
0.001
0.001
0.001
0.001
0.001
0.001
0.001
0.001
0.001
0.001
0.001
0.001
0.001
0.001
0.001
0.001
0.001
0.001
0.001
0.001
0.001
0.001
0.001
0.001
0.001
0.001
0.001
0.001
0.001
0.001
0.001
0.001
0.001
0.001
0.001
0.001
0.001
0.001
0.001
0.001
0.001
0.001
0.001
0.001
0.001
0.001
0.001
0.001
0.001
0.001
0.001
0.001
0.001
0.001
0.001
0.001
0.001
0.001
0.001
0.001
0.001
0.001
0.001
0.001
0.001
0.001
0.001
0.001
0.001
0.001
0.001
0.001
0.001
0.001
0.001
0.001
0.001
0.001
0.001
0.001
0.001
0.001
0.001
0.001
0.001
0.001
0.001
0.001
0.001
0.001
0.000999999999999
0.000999999999999
0.000999999999999
0.000999999999999
0.000999999999999
0.000999999999999
0.000999999999999
0.000999999999998
0.000999999999998
0.000999999999998
0.000999999999998
0.000999999999998
0.000999999999998
0.000999999999998
0.000999999999998
0.000999999999998
0.000999999999998
0.000999999999998
0.000999999999998
0.000999999999998
0.000999999999998
0.000999999999998
0.000999999999998
0.000999999999998
0.000999999999998
0.000999999999998
0.000999999999998
0.000999999999998
0.000999999999998
0.000999999999998
0.000999999999998
0.000999999999998
0.000999999999998
0.000999999999998
0.000999999999998
0.000999999999998
0.000999999999998
0.000999999999998
0.000999999999998
0.000999999999998
0.000999999999998
0.000999999999998
0.000999999999998
0.000999999999998
0.000999999999998
0.000999999999998
0.000999999999998
0.000999999999998
0.000999999999998
0.000999999999998
0.000999999999998
0.000999999999998
0.000999999999998
0.000999999999998
0.000999999999998
0.000999999999998
0.000999999999998
0.000999999999998
0.000999999999998
0.000999999999998
0.000999999999998
0.000999999999999
0.000999999999999
0.000999999999999
0.000999999999996
0.000999999999996
0.000999999999996
0.000999999999996
0.000999999999996
0.000999999999996
0.000999999999996
0.000999999999996
0.000999999999996
0.000999999999996
0.000999999999996
0.000999999999996
0.000999999999996
0.000999999999996
0.000999999999996
0.000999999999996
0.000999999999996
0.000999999999996
0.000999999999995
0.000999999999995
0.000999999999995
0.000999999999995
0.000999999999995
0.000999999999995
0.000999999999995
0.000999999999995
0.000999999999996
0.000999999999996
0.000999999999996
0.000999999999996
0.000999999999996
0.000999999999996
0.000999999999996
0.000999999999996
0.000999999999996
0.000999999999996
0.000999999999996
0.000999999999996
0.000999999999996
0.000999999999996
0.000999999999996
0.000999999999996
0.000999999999996
0.000999999999996
0.000999999999996
0.000999999999996
0.000999999999996
0.000999999999996
0.000999999999996
0.000999999999996
0.000999999999996
0.000999999999996
0.000999999999996
0.000999999999996
0.000999999999996
0.000999999999996
0.000999999999996
0.000999999999996
0.000999999999996
0.000999999999996
0.000999999999996
0.000999999999996
0.000999999999996
0.000999999999996
0.000999999999996
0.000999999999996
0.000999999999996
0.000999999999996
0.000999999999996
0.000999999999996
0.000999999999996
0.000999999999996
0.000999999999996
0.000999999999996
0.000999999999995
0.000999999999995
0.000999999999995
0.000999999999995
0.000999999999995
0.000999999999995
0.000999999999995
0.000999999999994
0.000999999999994
0.000999999999994
0.000999999999994
0.000999999999994
0.000999999999994
0.000999999999995
0.000999999999995
0.000999999999995
0.000999999999995
0.000999999999995
0.000999999999995
0.000999999999995
0.000999999999996
0.000999999999996
0.000999999999996
0.000999999999996
0.000999999999996
0.000999999999996
0.000999999999996
0.000999999999997
0.000999999999997
0.000999999999997
0.000999999999997
0.000999999999997
0.000999999999997
0.000999999999996
0.000999999999996
0.000999999999996
0.000999999999996
0.000999999999996
0.000999999999997
0.000999999999997
0.000999999999997
0.000999999999997
0.000999999999997
0.000999999999997
0.000999999999997
0.000999999999997
0.000999999999997
0.000999999999997
0.000999999999996
0.000999999999996
0.000999999999996
0.000999999999996
0.000999999999996
0.000999999999996
0.00100000000001
0.001
0.001
0.001
0.001
0.001
0.001
0.001
0.001
0.001
0.001
0.001
0.001
0.001
0.001
0.001
0.001
0.001
0.001
0.001
0.00100000000001
0.00100000000001
0.00100000000001
0.00100000000001
0.00100000000001
0.00100000000001
0.00100000000001
0.001
0.001
0.001
0.001
0.001
0.001
0.001
0.001
0.001
0.00100000000001
0.00100000000001
0.00100000000001
0.00100000000001
0.00100000000001
0.00100000000001
0.00100000000001
0.00100000000001
0.00100000000001
0.00100000000001
0.00100000000001
0.00100000000001
0.00100000000001
0.00100000000001
0.00100000000001
0.00100000000001
0.00100000000001
0.00100000000001
0.00100000000001
0.00100000000001
0.00100000000001
0.00100000000001
0.00100000000001
0.00100000000001
0.00100000000001
0.00100000000001
0.00100000000001
0.00100000000001
0.00100000000003
0.00100000000003
0.00100000000003
0.00100000000003
0.00100000000003
0.00100000000003
0.00100000000003
0.00100000000003
0.00100000000003
0.00100000000003
0.00100000000003
0.00100000000003
0.00100000000003
0.00100000000003
0.00100000000003
0.00100000000003
0.00100000000003
0.00100000000004
0.00100000000004
0.00100000000004
0.00100000000004
0.00100000000004
0.00100000000004
0.00100000000004
0.00100000000004
0.00100000000004
0.00100000000004
0.00100000000003
0.00100000000003
0.00100000000003
0.00100000000003
0.00100000000003
0.00100000000003
0.00100000000003
0.00100000000003
0.00100000000003
0.00100000000003
0.00100000000003
0.00100000000003
0.00100000000003
0.00100000000003
0.00100000000003
0.00100000000003
0.00100000000003
0.00100000000003
0.00100000000003
0.00100000000003
0.00100000000003
0.00100000000003
0.00100000000003
0.00100000000003
0.00100000000003
0.00100000000003
0.00100000000003
0.00100000000003
0.00100000000003
0.00100000000003
0.00100000000003
0.00100000000003
0.00100000000003
0.00100000000003
0.00100000000003
0.00100000000003
0.00100000000003
0.00100000000005
0.00100000000005
0.00100000000005
0.00100000000005
0.00100000000005
0.00100000000005
0.00100000000005
0.00100000000005
0.00100000000005
0.00100000000005
0.00100000000006
0.00100000000006
0.00100000000006
0.00100000000006
0.00100000000006
0.00100000000006
0.00100000000006
0.00100000000007
0.00100000000007
0.00100000000007
0.00100000000007
0.00100000000007
0.00100000000007
0.00100000000007
0.00100000000007
0.00100000000007
0.00100000000006
0.00100000000006
0.00100000000006
0.00100000000006
0.00100000000006
0.00100000000006
0.00100000000006
0.00100000000006
0.00100000000006
0.00100000000005
0.00100000000005
0.00100000000005
0.00100000000005
0.00100000000005
0.00100000000005
0.00100000000005
0.00100000000005
0.00100000000005
0.00100000000005
0.00100000000005
0.00100000000005
0.00100000000005
0.00100000000005
0.00100000000005
0.00100000000005
0.00100000000005
0.00100000000005
0.00100000000005
0.00100000000005
0.00100000000005
0.00100000000005
0.00100000000005
0.00100000000005
0.00100000000005
0.00100000000005
0.00100000000005
0.00100000000005
0.00100000000005
0.00100000000002
0.00100000000002
0.00100000000002
0.00100000000002
0.00100000000002
0.00100000000002
0.00100000000002
0.00100000000002
0.00100000000003
0.00100000000003
0.00100000000003
0.00100000000003
0.00100000000003
0.00100000000003
0.00100000000003
0.00100000000003
0.00100000000004
0.00100000000004
0.00100000000004
0.00100000000004
0.00100000000004
0.00100000000004
0.00100000000003
0.00100000000004
0.00100000000004
0.00100000000004
0.00100000000004
0.00100000000004
0.00100000000004
0.00100000000004
0.00100000000004
0.00100000000004
0.00100000000004
0.00100000000004
0.00100000000004
0.00100000000004
0.00100000000004
0.00100000000004
0.00100000000004
0.00100000000004
0.00100000000003
0.00100000000003
0.00100000000003
0.00100000000003
0.00100000000003
0.00100000000003
0.00100000000003
0.00100000000003
0.00100000000003
0.00100000000003
0.00100000000003
0.00100000000003
0.00100000000002
0.00100000000002
0.00100000000002
0.00100000000002
0.00100000000002
0.00100000000002
0.00100000000002
0.00100000000002
0.00100000000002
0.00100000000002
0.00100000000002
0.00100000000002
0.000999999999933
0.000999999999932
0.000999999999932
0.000999999999933
0.000999999999933
0.000999999999933
0.000999999999932
0.000999999999932
0.000999999999932
0.000999999999932
0.000999999999933
0.000999999999933
0.000999999999933
0.000999999999933
0.000999999999932
0.000999999999932
0.000999999999929
0.000999999999926
0.000999999999922
0.000999999999919
0.000999999999917
0.000999999999915
0.000999999999916
0.000999999999918
0.000999999999921
0.000999999999924
0.000999999999927
0.00099999999993
0.000999999999934
0.000999999999936
0.000999999999938
0.000999999999939
0.00099999999994
0.000999999999941
0.000999999999943
0.000999999999944
0.000999999999947
0.00099999999995
0.000999999999951
0.00099999999995
0.000999999999946
0.000999999999942
0.000999999999939
0.000999999999937
0.000999999999936
0.000999999999936
0.000999999999936
0.000999999999938
0.00099999999994
0.000999999999942
0.000999999999942
0.000999999999941
0.00099999999994
0.000999999999939
0.000999999999938
0.000999999999938
0.000999999999938
0.000999999999939
0.00099999999994
0.000999999999941
0.000999999999939
0.000999999999937
0.000999999999935
0.000999999999934
0.00099999999981
0.000999999999809
0.000999999999807
0.000999999999805
0.000999999999803
0.000999999999799
0.000999999999796
0.000999999999793
0.00099999999979
0.000999999999788
0.000999999999786
0.000999999999784
0.000999999999781
0.000999999999776
0.000999999999769
0.000999999999762
0.000999999999753
0.000999999999744
0.000999999999736
0.00099999999973
0.000999999999727
0.000999999999727
0.00099999999973
0.000999999999733
0.000999999999736
0.00099999999974
0.000999999999743
0.000999999999747
0.000999999999752
0.000999999999757
0.000999999999762
0.000999999999766
0.000999999999769
0.000999999999772
0.000999999999774
0.000999999999777
0.000999999999781
0.000999999999785
0.000999999999788
0.00099999999979
0.000999999999789
0.000999999999788
0.000999999999788
0.00099999999979
0.000999999999792
0.000999999999795
0.000999999999798
0.000999999999802
0.000999999999805
0.000999999999807
0.000999999999808
0.000999999999809
0.00099999999981
0.000999999999811
0.000999999999812
0.000999999999813
0.000999999999813
0.000999999999813
0.000999999999814
0.000999999999814
0.000999999999814
0.000999999999813
0.000999999999812
0.000999999999811
0.000999999999701
0.0009999999997
0.000999999999697
0.000999999999691
0.000999999999684
0.000999999999676
0.000999999999668
0.000999999999661
0.000999999999656
0.000999999999651
0.000999999999644
0.000999999999636
0.000999999999629
0.000999999999618
0.000999999999603
0.000999999999587
0.000999999999571
0.000999999999558
0.00099999999955
0.000999999999546
0.000999999999546
0.000999999999551
0.000999999999557
0.000999999999564
0.000999999999568
0.000999999999572
0.000999999999576
0.000999999999579
0.000999999999584
0.00099999999959
0.000999999999596
0.000999999999602
0.000999999999605
0.000999999999606
0.000999999999607
0.00099999999961
0.000999999999612
0.000999999999614
0.000999999999617
0.000999999999623
0.00099999999963
0.000999999999637
0.000999999999645
0.000999999999653
0.000999999999659
0.000999999999666
0.000999999999671
0.000999999999675
0.000999999999677
0.00099999999968
0.000999999999684
0.000999999999689
0.000999999999693
0.000999999999696
0.000999999999699
0.000999999999703
0.000999999999702
0.0009999999997
0.000999999999699
0.000999999999698
0.000999999999697
0.000999999999699
0.000999999999701
0.000999999999702
0.000999999999848
0.000999999999848
0.000999999999846
0.000999999999842
0.000999999999835
0.000999999999827
0.000999999999819
0.000999999999811
0.000999999999806
0.0009999999998
0.000999999999793
0.000999999999783
0.000999999999771
0.000999999999758
0.000999999999745
0.000999999999731
0.000999999999721
0.000999999999717
0.000999999999717
0.000999999999721
0.000999999999729
0.000999999999737
0.000999999999742
0.000999999999743
0.000999999999741
0.000999999999735
0.000999999999727
0.00099999999972
0.000999999999716
0.000999999999713
0.000999999999712
0.00099999999971
0.000999999999708
0.000999999999709
0.00099999999971
0.000999999999713
0.000999999999719
0.000999999999725
0.000999999999735
0.000999999999748
0.000999999999763
0.000999999999779
0.00099999999979
0.000999999999797
0.000999999999802
0.000999999999807
0.000999999999811
0.000999999999813
0.000999999999814
0.000999999999815
0.000999999999818
0.000999999999821
0.000999999999825
0.000999999999831
0.000999999999835
0.000999999999836
0.000999999999838
0.000999999999839
0.000999999999842
0.000999999999842
0.000999999999843
0.000999999999844
0.000999999999845
0.000999999999846
0.00100000000016
0.00100000000016
0.00100000000016
0.00100000000016
0.00100000000016
0.00100000000015
0.00100000000015
0.00100000000015
0.00100000000015
0.00100000000015
0.00100000000014
0.00100000000014
0.00100000000013
0.00100000000012
0.00100000000012
0.00100000000012
0.00100000000013
0.00100000000014
0.00100000000015
0.00100000000016
0.00100000000017
0.00100000000018
0.00100000000018
0.00100000000017
0.00100000000016
0.00100000000014
0.00100000000013
0.00100000000011
0.0010000000001
0.0010000000001
0.00100000000009
0.00100000000009
0.00100000000008
0.00100000000009
0.00100000000009
0.00100000000009
0.00100000000009
0.00100000000009
0.0010000000001
0.00100000000011
0.00100000000012
0.00100000000013
0.00100000000014
0.00100000000014
0.00100000000014
0.00100000000014
0.00100000000014
0.00100000000014
0.00100000000015
0.00100000000015
0.00100000000016
0.00100000000016
0.00100000000017
0.00100000000017
0.00100000000018
0.00100000000018
0.00100000000018
0.00100000000018
0.00100000000018
0.00100000000018
0.00100000000017
0.00100000000017
0.00100000000016
0.00100000000016
0.00100000000087
0.00100000000087
0.00100000000088
0.00100000000088
0.00100000000089
0.0010000000009
0.00100000000091
0.00100000000093
0.00100000000095
0.00100000000097
0.00100000000099
0.001000000001
0.00100000000102
0.00100000000104
0.00100000000107
0.0010000000011
0.00100000000113
0.00100000000115
0.00100000000116
0.00100000000117
0.00100000000116
0.00100000000114
0.00100000000112
0.0010000000011
0.00100000000107
0.00100000000105
0.00100000000104
0.00100000000103
0.00100000000102
0.00100000000101
0.00100000000101
0.001000000001
0.001000000001
0.00100000000099
0.00100000000098
0.00100000000097
0.00100000000096
0.00100000000094
0.00100000000093
0.00100000000091
0.00100000000091
0.0010000000009
0.00100000000089
0.00100000000089
0.00100000000088
0.00100000000088
0.00100000000088
0.00100000000088
0.00100000000088
0.00100000000088
0.00100000000089
0.00100000000089
0.0010000000009
0.0010000000009
0.0010000000009
0.00100000000091
0.00100000000091
0.00100000000091
0.0010000000009
0.0010000000009
0.0010000000009
0.00100000000089
0.00100000000088
0.00100000000088
0.00100000000199
0.00100000000199
0.001000000002
0.00100000000202
0.00100000000204
0.00100000000207
0.00100000000212
0.00100000000218
0.00100000000224
0.00100000000229
0.00100000000235
0.0010000000024
0.00100000000246
0.00100000000254
0.0010000000026
0.00100000000268
0.00100000000274
0.00100000000276
0.00100000000274
0.0010000000027
0.00100000000263
0.00100000000255
0.00100000000248
0.00100000000242
0.00100000000239
0.00100000000237
0.00100000000238
0.00100000000238
0.00100000000238
0.00100000000237
0.00100000000236
0.00100000000235
0.00100000000234
0.00100000000232
0.0010000000023
0.00100000000228
0.00100000000224
0.00100000000221
0.00100000000216
0.00100000000212
0.00100000000208
0.00100000000205
0.00100000000202
0.00100000000201
0.00100000000199
0.00100000000197
0.00100000000196
0.00100000000196
0.00100000000195
0.00100000000194
0.00100000000193
0.00100000000192
0.00100000000191
0.0010000000019
0.00100000000189
0.00100000000189
0.00100000000189
0.00100000000189
0.00100000000191
0.00100000000193
0.00100000000195
0.00100000000197
0.00100000000198
0.00100000000198
0.00100000000232
0.00100000000233
0.00100000000234
0.00100000000237
0.0010000000024
0.00100000000246
0.00100000000253
0.00100000000262
0.00100000000271
0.00100000000279
0.00100000000286
0.00100000000294
0.00100000000303
0.00100000000313
0.00100000000323
0.00100000000331
0.00100000000337
0.00100000000337
0.0010000000033
0.00100000000319
0.00100000000306
0.00100000000292
0.00100000000282
0.00100000000275
0.00100000000273
0.00100000000275
0.0010000000028
0.00100000000284
0.00100000000286
0.00100000000287
0.00100000000286
0.00100000000286
0.00100000000284
0.00100000000283
0.00100000000281
0.00100000000278
0.00100000000274
0.00100000000269
0.00100000000262
0.00100000000254
0.00100000000246
0.00100000000239
0.00100000000233
0.00100000000231
0.00100000000228
0.00100000000226
0.00100000000225
0.00100000000225
0.00100000000224
0.00100000000222
0.00100000000219
0.00100000000215
0.00100000000211
0.00100000000209
0.00100000000207
0.00100000000205
0.00100000000204
0.00100000000205
0.00100000000208
0.00100000000213
0.00100000000219
0.00100000000225
0.00100000000227
0.0010000000023
0.00100000000071
0.00100000000073
0.00100000000075
0.00100000000078
0.00100000000081
0.00100000000085
0.0010000000009
0.00100000000096
0.00100000000102
0.00100000000108
0.00100000000112
0.00100000000118
0.00100000000125
0.00100000000132
0.00100000000136
0.00100000000142
0.00100000000145
0.00100000000142
0.00100000000135
0.00100000000125
0.00100000000115
0.00100000000106
0.001000000001
0.00100000000099
0.00100000000102
0.00100000000109
0.00100000000117
0.00100000000124
0.00100000000128
0.0010000000013
0.00100000000131
0.00100000000131
0.00100000000131
0.00100000000131
0.00100000000131
0.0010000000013
0.00100000000128
0.00100000000123
0.00100000000115
0.00100000000105
0.00100000000094
0.00100000000084
0.00100000000077
0.00100000000074
0.00100000000072
0.00100000000071
0.00100000000072
0.00100000000072
0.00100000000072
0.00100000000069
0.00100000000065
0.00100000000059
0.00100000000053
0.0010000000005
0.00100000000047
0.00100000000044
0.00100000000042
0.00100000000042
0.00100000000044
0.00100000000049
0.00100000000055
0.00100000000061
0.00100000000065
0.00100000000068
0.000999999996644
0.000999999996665
0.000999999996681
0.000999999996695
0.000999999996694
0.000999999996666
0.00099999999662
0.000999999996575
0.000999999996539
0.000999999996501
0.000999999996455
0.000999999996407
0.000999999996377
0.000999999996348
0.000999999996312
0.000999999996267
0.000999999996247
0.000999999996268
0.000999999996326
0.000999999996414
0.000999999996519
0.00099999999663
0.000999999996739
0.000999999996841
0.00099999999693
0.000999999997
0.000999999997049
0.000999999997077
0.000999999997089
0.000999999997093
0.000999999997095
0.000999999997103
0.000999999997115
0.000999999997141
0.000999999997178
0.000999999997213
0.000999999997235
0.000999999997235
0.000999999997202
0.000999999997137
0.000999999997054
0.000999999996978
0.000999999996931
0.000999999996914
0.00099999999691
0.000999999996922
0.000999999996948
0.000999999996966
0.000999999996961
0.000999999996933
0.000999999996888
0.000999999996831
0.000999999996769
0.000999999996729
0.000999999996701
0.000999999996671
0.000999999996643
0.000999999996621
0.000999999996604
0.000999999996593
0.000999999996592
0.000999999996598
0.000999999996609
0.000999999996625
0.000999999991001
0.00099999999098
0.000999999990966
0.000999999990935
0.000999999990863
0.000999999990724
0.000999999990535
0.000999999990339
0.000999999990166
0.00099999999001
0.000999999989844
0.000999999989656
0.000999999989479
0.000999999989383
0.000999999989207
0.000999999989016
0.000999999988994
0.00099999998915
0.000999999989458
0.000999999989883
0.000999999990359
0.000999999990807
0.000999999991158
0.00099999999137
0.000999999991438
0.000999999991391
0.00099999999128
0.000999999991157
0.000999999991061
0.000999999991006
0.00099999999099
0.000999999990998
0.000999999991023
0.000999999991077
0.000999999991155
0.000999999991244
0.000999999991341
0.000999999991437
0.000999999991518
0.000999999991574
0.000999999991609
0.000999999991637
0.000999999991669
0.0009999999917
0.000999999991717
0.00099999999175
0.00099999999179
0.000999999991806
0.000999999991796
0.00099999999177
0.000999999991732
0.000999999991687
0.000999999991642
0.000999999991608
0.000999999991592
0.000999999991576
0.000999999991554
0.000999999991522
0.000999999991468
0.000999999991384
0.00099999999128
0.000999999991179
0.000999999991103
0.000999999991046
0.000999999986446
0.000999999986341
0.00099999998623
0.000999999986123
0.000999999985972
0.000999999985729
0.000999999985414
0.000999999985096
0.000999999984825
0.000999999984593
0.000999999984359
0.000999999984089
0.000999999983817
0.000999999983658
0.000999999983377
0.000999999983097
0.000999999983101
0.0009999999834
0.000999999983962
0.000999999984729
0.000999999985579
0.000999999986349
0.000999999986895
0.000999999987133
0.000999999987062
0.000999999986762
0.000999999986365
0.000999999985996
0.000999999985734
0.000999999985599
0.000999999985557
0.000999999985567
0.000999999985609
0.000999999985683
0.000999999985781
0.000999999985905
0.00099999998607
0.000999999986277
0.000999999986516
0.000999999986766
0.000999999987007
0.000999999987222
0.00099999998739
0.00099999998749
0.000999999987529
0.000999999987572
0.000999999987612
0.000999999987614
0.000999999987596
0.000999999987578
0.000999999987561
0.000999999987546
0.000999999987542
0.000999999987549
0.00099999998756
0.000999999987572
0.000999999987588
0.000999999987577
0.000999999987528
0.0009999999874
0.000999999987201
0.000999999986985
0.000999999986778
0.000999999986578
0.000999999986795
0.000999999986592
0.000999999986355
0.000999999986178
0.000999999985986
0.0009999999857
0.000999999985343
0.000999999985004
0.000999999984737
0.000999999984532
0.000999999984341
0.000999999984131
0.000999999983909
0.000999999983667
0.000999999983427
0.000999999983191
0.000999999983178
0.00099999998351
0.000999999984146
0.00099999998503
0.000999999986013
0.000999999986884
0.00099999998744
0.000999999987565
0.000999999987264
0.00099999998666
0.000999999985954
0.000999999985341
0.000999999984935
0.000999999984745
0.000999999984703
0.000999999984733
0.000999999984794
0.000999999984865
0.000999999984939
0.00099999998504
0.000999999985208
0.000999999985476
0.000999999985843
0.000999999986285
0.000999999986753
0.000999999987179
0.000999999987494
0.000999999987663
0.000999999987717
0.000999999987754
0.000999999987774
0.000999999987755
0.000999999987737
0.000999999987744
0.000999999987774
0.000999999987825
0.000999999987901
0.000999999987989
0.000999999988066
0.000999999988136
0.000999999988208
0.000999999988246
0.000999999988241
0.000999999988138
0.000999999987922
0.000999999987646
0.000999999987324
0.000999999986989
0.000999999995474
0.000999999995225
0.000999999994916
0.000999999994703
0.000999999994522
0.000999999994294
0.000999999994032
0.000999999993814
0.000999999993694
0.000999999993646
0.000999999993623
0.000999999993596
0.000999999993539
0.000999999993412
0.000999999993285
0.00099999999311
0.000999999993032
0.00099999999319
0.000999999993576
0.000999999994165
0.00099999999485
0.000999999995445
0.000999999995752
0.000999999995645
0.000999999995126
0.000999999994325
0.000999999993464
0.000999999992758
0.000999999992328
0.000999999992166
0.000999999992173
0.000999999992248
0.000999999992325
0.000999999992363
0.000999999992355
0.000999999992345
0.000999999992408
0.00099999999261
0.000999999992982
0.000999999993505
0.000999999994102
0.000999999994656
0.000999999995048
0.000999999995237
0.000999999995285
0.00099999999529
0.000999999995262
0.000999999995216
0.000999999995209
0.000999999995271
0.000999999995392
0.000999999995563
0.000999999995771
0.000999999995987
0.000999999996171
0.000999999996319
0.000999999996448
0.000999999996518
0.000999999996602
0.000999999996622
0.000999999996508
0.000999999996306
0.000999999996012
0.00099999999567
0.00100000001363
0.00100000001343
0.00100000001316
0.00100000001296
0.00100000001284
0.00100000001278
0.00100000001277
0.00100000001284
0.001000000013
0.00100000001321
0.00100000001343
0.00100000001365
0.00100000001383
0.00100000001392
0.00100000001388
0.00100000001375
0.00100000001352
0.00100000001327
0.00100000001307
0.00100000001294
0.00100000001288
0.00100000001283
0.00100000001267
0.00100000001231
0.00100000001172
0.00100000001099
0.00100000001028
0.00100000000974
0.00100000000946
0.00100000000942
0.00100000000952
0.00100000000963
0.0010000000097
0.00100000000967
0.00100000000953
0.00100000000933
0.00100000000917
0.00100000000917
0.00100000000937
0.00100000000978
0.00100000001031
0.00100000001081
0.00100000001113
0.00100000001124
0.00100000001123
0.00100000001118
0.00100000001107
0.00100000001097
0.00100000001097
0.0010000000111
0.00100000001135
0.00100000001168
0.00100000001205
0.0010000000124
0.0010000000127
0.00100000001291
0.00100000001308
0.00100000001317
0.00100000001337
0.00100000001363
0.00100000001379
0.00100000001387
0.00100000001386
0.00100000001373
0.0010000000385
0.00100000003849
0.00100000003839
0.00100000003829
0.0010000000383
0.00100000003851
0.00100000003889
0.00100000003937
0.00100000003988
0.00100000004035
0.00100000004079
0.00100000004122
0.00100000004159
0.00100000004181
0.0010000000418
0.00100000004162
0.00100000004115
0.00100000004036
0.00100000003938
0.0010000000383
0.00100000003726
0.00100000003638
0.00100000003571
0.0010000000352
0.0010000000348
0.00100000003446
0.00100000003423
0.00100000003412
0.00100000003414
0.00100000003427
0.00100000003443
0.00100000003453
0.00100000003453
0.00100000003438
0.00100000003407
0.00100000003366
0.00100000003325
0.00100000003295
0.00100000003285
0.00100000003296
0.00100000003321
0.00100000003345
0.00100000003355
0.00100000003347
0.00100000003332
0.00100000003322
0.00100000003301
0.00100000003276
0.00100000003273
0.00100000003292
0.00100000003327
0.00100000003371
0.00100000003418
0.00100000003461
0.00100000003494
0.00100000003517
0.00100000003535
0.00100000003546
0.00100000003583
0.00100000003643
0.00100000003705
0.00100000003765
0.00100000003814
0.00100000003841
0.00100000006294
0.00100000006324
0.00100000006344
0.00100000006356
0.00100000006381
0.00100000006436
0.00100000006519
0.00100000006608
0.00100000006689
0.00100000006754
0.00100000006807
0.00100000006856
0.00100000006896
0.00100000006918
0.00100000006908
0.00100000006882
0.0010000000681
0.00100000006682
0.00100000006513
0.00100000006317
0.00100000006123
0.00100000005963
0.00100000005858
0.00100000005812
0.00100000005813
0.00100000005845
0.00100000005891
0.00100000005938
0.00100000005976
0.00100000006002
0.00100000006015
0.00100000006014
0.00100000006
0.0010000000597
0.00100000005925
0.00100000005868
0.00100000005807
0.00100000005751
0.00100000005708
0.00100000005681
0.00100000005665
0.0010000000565
0.00100000005628
0.00100000005597
0.00100000005569
0.00100000005549
0.00100000005515
0.00100000005475
0.00100000005461
0.00100000005476
0.00100000005511