/*--------------------------------*- C++ -*----------------------------------*\
  =========                 |
  \\      /  F ield         | OpenFOAM: The Open Source CFD Toolbox
   \\    /   O peration     | Website:  https://openfoam.org
    \\  /    A nd           | Version:  6
     \\/     M anipulation  |
\*---------------------------------------------------------------------------*/
FoamFile
{
    version     2.0;
    format      ascii;
    class       volScalarField;
    location    "3e-08";
    object      p;
}
// * * * * * * * * * * * * * * * * * * * * * * * * * * * * * * * * * * * * * //

dimensions      [1 -1 -2 0 0 0 0];

internalField   nonuniform List<scalar> 
12288
(
4998405.16315
4998404.89329
4998404.54842
4998404.12907
4998403.63718
4998403.07391
4998402.43837
4998401.72752
4998400.93502
4998400.05334
4998399.07542
4998397.99742
4998396.82226
4998395.5609
4998394.23034
4998392.85358
4998391.45569
4998390.05985
4998388.68644
4998387.3513
4998386.06284
4998384.81886
4998383.61152
4998382.43584
4998381.29426
4998380.19022
4998379.12456
4998378.11415
4998377.23865
4998376.46925
4998375.77824
4998375.18454
4998374.72962
4998374.44268
4998374.31787
4998374.37189
4998374.65962
4998375.19749
4998375.96814
4998376.96478
4998378.17639
4998379.59107
4998381.19354
4998382.96096
4998384.86288
4998386.86246
4998388.92102
4998391.00092
4998393.06604
4998395.07624
4998396.98517
4998398.74572
4998400.31928
4998401.6798
4998402.8101
4998403.69954
4998404.33815
4998404.80978
4998405.14645
4998405.36374
4998405.48362
4998405.51871
4998405.4775
4998405.35752
4998234.40672
4998234.44605
4998234.29194
4998233.91443
4998233.35805
4998232.65368
4998231.82334
4998230.88476
4998229.85364
4998228.74078
4998227.55392
4998226.30045
4998224.99022
4998223.63687
4998222.25942
4998220.87892
4998219.51566
4998218.18668
4998216.89957
4998215.64644
4998214.40314
4998213.13748
4998211.81654
4998210.41461
4998208.91601
4998207.31576
4998205.61536
4998203.82471
4998201.95935
4998200.02407
4998198.01663
4998195.95254
4998193.87033
4998191.81648
4998189.84354
4998188.01599
4998186.402
4998185.0642
4998184.06345
4998183.45346
4998183.21302
4998183.40704
4998184.14432
4998185.40015
4998187.15717
4998189.41418
4998192.12809
4998195.23081
4998198.64378
4998202.2746
4998206.01422
4998209.74724
4998213.36478
4998216.77478
4998219.90604
4998222.71126
4998225.17164
4998227.30134
4998229.1134
4998230.58092
4998231.82861
4998232.8425
4998233.61791
4998234.15009
4997965.45337
4997966.10759
4997966.33262
4997966.21188
4997965.78576
4997965.08406
4997964.16382
4997963.06987
4997961.8463
4997960.52953
4997959.15028
4997957.73436
4997956.305
4997954.88228
4997953.48475
4997952.13133
4997950.8388
4997949.61496
4997948.45084
4997947.31937
4997946.18209
4997944.99907
4997943.73542
4997942.3646
4997940.86759
4997939.2305
4997937.44303
4997935.49681
4997933.37953
4997931.08042
4997928.59174
4997925.91458
4997923.06383
4997920.07411
4997917.00051
4997913.90999
4997910.8727
4997907.95886
4997905.23654
4997902.78243
4997900.71079
4997899.16516
4997898.2977
4997897.96334
4997898.27273
4997899.42436
4997901.37959
4997904.08365
4997907.5006
4997911.53797
4997916.05238
4997920.89051
4997925.89778
4997930.92233
4997935.83127
4997940.51411
4997944.88964
4997948.90494
4997952.52735
4997955.73886
4997958.53363
4997960.88606
4997962.79846
4997964.33558
4997795.40664
4997796.97126
4997797.96731
4997798.37
4997798.35581
4997798.03347
4997797.3973
4997796.52878
4997795.47689
4997794.2895
4997793.00981
4997791.67198
4997790.29776
4997788.89427
4997787.469
4997786.03619
4997784.61268
4997783.21062
4997781.83301
4997780.47476
4997779.12665
4997777.77948
4997776.42526
4997775.05572
4997773.65977
4997772.22177
4997770.72166
4997769.13638
4997767.44183
4997765.61469
4997763.63259
4997761.4788
4997759.14757
4997756.64481
4997753.9881
4997751.21105
4997748.3451
4997745.41358
4997742.44052
4997739.47817
4997736.60699
4997733.92719
4997731.56064
4997729.66535
4997728.43207
4997727.91409
4997727.97304
4997728.80769
4997730.58653
4997733.16138
4997736.49277
4997740.46754
4997744.95655
4997749.82296
4997754.93314
4997760.14613
4997765.33659
4997770.39295
4997775.21476
4997779.71877
4997783.83367
4997787.50071
4997790.67186
4997793.31177
4997721.37704
4997723.77439
4997725.62559
4997726.9564
4997727.75733
4997728.08524
4997728.12205
4997727.95861
4997727.56541
4997726.96699
4997726.18221
4997725.23389
4997724.10476
4997722.7696
4997721.23166
4997719.51518
4997717.66287
4997715.72903
4997713.76828
4997711.82913
4997709.9514
4997708.16555
4997706.49169
4997704.93678
4997703.49346
4997702.14207
4997700.85542
4997699.60379
4997698.35854
4997697.09246
4997695.77855
4997694.39503
4997692.92903
4997691.37056
4997689.70703
4997687.9282
4997686.0563
4997684.07683
4997681.94356
4997679.6626
4997677.24712
4997674.74916
4997672.26389
4997669.90656
4997667.77515
4997665.9876
4997664.76462
4997664.24901
4997664.28004
4997664.88469
4997666.26841
4997668.45484
4997671.19889
4997674.53305
4997678.38052
4997682.66137
4997687.26956
4997692.09376
4997696.99943
4997701.85659
4997706.53949
4997710.93044
4997714.91991
4997718.4199
4997646.54578
4997648.94045
4997650.87114
4997652.39345
4997653.53031
4997654.3131
4997654.83022
4997655.18697
4997655.43719
4997655.58154
4997655.41612
4997655.12533
4997654.55466
4997653.60039
4997652.27541
4997650.60101
4997648.63616
4997646.4769
4997644.22226
4997641.96
4997639.76
4997637.6727
4997635.72709
4997633.92976
4997632.26988
4997630.72725
4997629.27961
4997627.90756
4997626.59553
4997625.32638
4997624.08323
4997622.86234
4997621.65986
4997620.47084
4997619.30104
4997618.15224
4997616.95869
4997615.70372
4997614.53065
4997613.3082
4997611.96381
4997610.54393
4997609.09301
4997607.6416
4997606.2196
4997604.8747
4997603.76318
4997603.05515
4997602.75621
4997602.80772
4997603.3073
4997604.30221
4997605.82586
4997608.06015
4997610.37234
4997613.18294
4997616.47971
4997620.1554
4997624.13453
4997628.29082
4997632.47832
4997636.53093
4997640.29303
4997643.65356
4997436.48977
4997438.84288
4997440.84164
4997442.53505
4997443.98696
4997445.26568
4997446.42733
4997447.48877
4997448.4564
4997449.31895
4997449.96029
4997450.32447
4997450.42288
4997450.07223
4997449.1746
4997447.79685
4997446.03844
4997444.01109
4997441.83732
4997439.63112
4997437.48124
4997435.4405
4997433.52485
4997431.72702
4997430.03457
4997428.4405
4997426.942
4997425.5355
4997424.21702
4997422.97937
4997421.81349
4997420.71533
4997419.67649
4997418.69458
4997417.77575
4997416.92453
4997416.13105
4997415.39627
4997414.67853
4997414.08461
4997413.47499
4997412.90502
4997412.33473
4997411.71589
4997411.0392
4997410.28077
4997409.48128
4997408.69021
4997408.01755
4997407.62071
4997407.47464
4997407.51957
4997407.81221
4997408.40425
4997409.43404
4997410.74227
4997412.39849
4997414.59906
4997417.32765
4997420.46542
4997423.86031
4997427.32019
4997430.66878
4997433.75705
4997216.76462
4997218.46778
4997219.8736
4997221.03525
4997222.05182
4997223.03919
4997224.06868
4997225.12735
4997226.17331
4997227.18044
4997228.09734
4997228.83127
4997229.2175
4997229.26135
4997228.98947
4997228.28521
4997227.2519
4997226.00283
4997224.6466
4997223.26936
4997221.9173
4997220.59304
4997219.27122
4997217.92535
4997216.54728
4997215.14945
4997213.7549
4997212.38749
4997211.07364
4997209.83918
4997208.706
4997207.66285
4997206.7004
4997205.81866
4997205.01472
4997204.2939
4997203.67423
4997203.1881
4997202.81482
4997202.56156
4997202.57403
4997202.70424
4997202.95933
4997203.28624
4997203.64503
4997203.96666
4997204.20515
4997204.29729
4997204.2227
4997204.06688
4997203.87285
4997203.61152
4997203.28957
4997202.93275
4997202.65706
4997202.77187
4997202.81119
4997203.25133
4997204.27213
4997205.83578
4997207.85708
4997210.15487
4997212.51731
4997214.76177
4996918.01773
4996919.79541
4996921.29393
4996922.5068
4996923.49833
4996924.37052
4996925.20283
4996926.0097
4996926.76363
4996927.38515
4996927.7912
4996928.09898
4996928.10682
4996927.89024
4996927.43872
4996926.79789
4996926.0409
4996925.2471
4996924.48127
4996923.77213
4996923.10474
4996922.43485
4996921.71351
4996920.90657
4996920.00137
4996919.0044
4996917.93402
4996916.81691
4996915.70156
4996914.66079
4996913.71677
4996912.85288
4996912.10559
4996911.49752
4996911.03243
4996910.70724
4996910.51532
4996910.45994
4996910.52063
4996910.67968
4996911.01269
4996911.59433
4996912.30741
4996913.13358
4996914.02958
4996914.94988
4996915.82176
4996916.5232
4996916.90269
4996916.95334
4996916.65995
4996915.94366
4996914.88807
4996913.63837
4996912.36574
4996911.27317
4996910.26691
4996909.53724
4996909.32458
4996909.61879
4996910.58542
4996912.11483
4996914.0064
4996916.03918
4996507.88061
4996510.54325
4996513.06969
4996515.33215
4996517.27585
4996518.91145
4996520.27746
4996521.38651
4996522.18953
4996522.588
4996522.65585
4996522.38465
4996521.72597
4996520.75593
4996519.5848
4996518.32505
4996517.07798
4996515.92779
4996514.92892
4996514.09541
4996513.39962
4996512.78897
4996512.21131
4996511.62862
4996511.01014
4996510.32915
4996509.57086
4996508.73831
4996507.8665
4996507.00018
4996506.15267
4996505.35176
4996504.6792
4996504.19762
4996503.95575
4996503.92576
4996504.07392
4996504.41904
4996504.93696
4996505.58689
4996506.33445
4996507.21942
4996508.314
4996509.53571
4996510.85968
4996512.21054
4996513.53468
4996514.68898
4996515.48134
4996515.79067
4996515.4896
4996514.40915
4996512.65971
4996510.51607
4996508.21173
4996505.92117
4996503.86979
4996502.10919
4996500.97945
4996500.38569
4996500.45264
4996501.30315
4996502.99642
4996505.28001
4995975.92232
4995979.52444
4995983.28655
4995986.9475
4995990.29454
4995993.19492
4995995.60947
4995997.52774
4995998.81856
4995999.31256
4995999.28144
4995998.75879
4995997.6187
4995995.9546
4995993.92168
4995991.67583
4995989.35934
4995987.09272
4995984.97197
4995983.06128
4995981.38714
4995979.94122
4995978.69874
4995977.62983
4995976.69725
4995975.84486
4995975.04982
4995974.21139
4995973.29516
4995972.30549
4995971.24241
4995970.14145
4995969.0862
4995968.14876
4995967.41531
4995966.96302
4995966.77021
4995966.81045
4995967.13359
4995967.73199
4995968.55266
4995969.57664
4995970.82697
4995972.35574
4995974.14676
4995976.15549
4995978.30265
4995980.43637
4995982.37281
4995983.8387
4995984.55081
4995984.43967
4995983.43007
4995981.60906
4995979.33743
4995976.87071
4995974.47124
4995972.35021
4995970.63166
4995969.43076
4995968.90409
4995969.17079
4995970.44356
4995972.78608
4995335.71088
4995339.18868
4995343.2415
4995347.53023
4995351.72516
4995355.54694
4995358.83234
4995361.52449
4995363.47638
4995364.45306
4995364.71694
4995364.46749
4995363.53552
4995361.91299
4995359.70387
4995357.04861
4995354.09819
4995351.00351
4995347.90957
4995344.94139
4995342.19427
4995339.73232
4995337.59766
4995335.80958
4995334.34997
4995333.16125
4995332.16564
4995331.22973
4995330.18493
4995329.06567
4995327.81357
4995326.40566
4995324.87871
4995323.28663
4995321.7174
4995320.27104
4995319.02396
4995318.04969
4995317.43424
4995317.1891
4995317.34002
4995317.96235
4995319.05592
4995320.62208
4995322.7531
4995325.49523
4995328.71614
4995332.24796
4995335.8615
4995339.24894
4995342.07195
4995343.9736
4995344.74463
4995344.54048
4995343.50175
4995341.76122
4995339.67722
4995337.63869
4995335.45591
4995333.49349
4995332.0687
4995331.43555
4995331.70877
4995333.12909
4994664.81191
4994666.91173
4994670.02152
4994673.8261
4994677.97163
4994682.08533
4994685.86668
4994689.15903
4994691.84824
4994693.73759
4994694.80744
4994695.28876
4994695.24341
4994694.54827
4994693.15196
4994691.13508
4994688.60891
4994685.72334
4994682.63963
4994679.51519
4994676.48895
4994673.68436
4994671.20934
4994669.13468
4994667.46809
4994666.16359
4994665.1615
4994664.38587
4994663.59652
4994662.81767
4994661.92974
4994660.88146
4994659.60736
4994658.10017
4994656.38836
4994654.53298
4994652.63352
4994650.81191
4994649.17059
4994647.84127
4994647.02559
4994646.77756
4994647.12346
4994648.21031
4994650.15193
4994653.01941
4994656.73296
4994661.06923
4994665.76246
4994670.45931
4994674.73255
4994678.17546
4994680.47633
4994681.39225
4994681.23207
4994680.21869
4994678.48648
4994676.11319
4994673.18305
4994670.20978
4994667.46648
4994665.27904
4994664.1174
4994663.95022
4994078.34358
4994079.11109
4994081.12427
4994084.18115
4994087.96546
4994092.08939
4994096.15886
4994099.91053
4994103.20498
4994105.89128
4994107.85009
4994109.14439
4994109.81546
4994109.94527
4994109.53098
4994108.39683
4994106.63442
4994104.38468
4994101.79996
4994099.04477
4994096.26664
4994093.60045
4994091.15967
4994089.02337
4994087.2272
4994085.7756
4994084.67621
4994083.97116
4994083.50485
4994083.23586
4994083.07439
4994082.9291
4994082.71188
4994082.3307
4994081.718
4994080.83257
4994079.65472
4994078.2663
4994076.75534
4994075.23617
4994073.88036
4994072.92993
4994072.58822
4994072.92583
4994074.09216
4994076.23611
4994079.32311
4994083.18639
4994087.55077
4994092.01438
4994096.07578
4994099.2968
4994101.41273
4994102.22828
4994102.12071
4994101.2077
4994099.09555
4994096.06328
4994092.51294
4994088.8747
4994085.35478
4994082.18634
4994079.78792
4994078.55813
4993648.93164
4993650.1648
4993652.37439
4993655.41675
4993659.13569
4993663.22837
4993667.34446
4993671.20329
4993674.60442
4993677.42238
4993679.5539
4993680.92761
4993681.53337
4993681.57924
4993681.1266
4993679.99267
4993678.25205
4993676.01887
4993673.43717
4993670.66915
4993667.86393
4993665.11212
4993662.45789
4993659.95583
4993657.67821
4993655.65895
4993653.94842
4993652.59696
4993651.66038
4993651.14907
4993651.02811
4993651.22781
4993651.70277
4993652.34923
4993653.03685
4993653.64507
4993654.07797
4993654.25702
4993654.11291
4993653.7513
4993653.26167
4993652.74083
4993652.46948
4993652.58617
4993653.22363
4993654.54333
4993656.51767
4993659.05971
4993661.95338
4993664.84027
4993667.26603
4993668.9855
4993669.8769
4993669.92885
4993669.27362
4993667.6814
4993665.18188
4993662.12799
4993658.91134
4993655.82052
4993653.06655
4993650.76975
4993649.16236
4993648.57303
4993371.81183
4993374.70074
4993377.86753
4993381.32814
4993385.04241
4993388.86704
4993392.63947
4993396.15866
4993399.21681
4993401.65961
4993403.34478
4993404.09825
4993404.15727
4993403.60242
4993402.31691
4993400.42298
4993398.00176
4993395.17206
4993392.10017
4993388.94208
4993385.79926
4993382.70802
4993379.66074
4993376.65109
4993373.69625
4993370.79871
4993367.95608
4993365.29682
4993363.01998
4993361.18898
4993359.84544
4993359.08827
4993358.86167
4993359.1422
4993359.92247
4993361.08088
4993362.53603
4993364.17272
4993365.85019
4993367.43958
4993368.87236
4993370.13422
4993371.25705
4993372.29948
4993373.37866
4993374.55948
4993375.8008
4993377.03863
4993378.14899
4993378.91278
4993379.17693
4993379.17546
4993378.83856
4993377.94956
4993376.47553
4993374.44706
4993372.18318
4993370.06064
4993368.28754
4993367.05211
4993366.61061
4993366.90244
4993367.83923
4993369.47872
4993199.36333
4993202.76684
4993206.06458
4993209.37333
4993212.74665
4993216.20631
4993219.71162
4993223.1197
4993226.2201
4993228.78836
4993230.58188
4993231.40088
4993231.48991
4993230.88835
4993229.44003
4993227.27667
4993224.54687
4993221.43359
4993218.14474
4993214.85385
4993211.65674
4993208.57071
4993205.54271
4993202.50106
4993199.40072
4993196.2127
4993192.93372
4993189.63691
4993186.44084
4993183.41019
4993180.86095
4993178.68898
4993177.04566
4993176.13097
4993175.88777
4993176.25457
4993177.34017
4993179.11064
4993181.43357
4993184.11569
4993186.92723
4993189.68211
4993192.23475
4993194.48866
4993196.40999
4993197.99396
4993199.18752
4993199.91089
4993200.09811
4993199.77011
4993199.01101
4993198.0068
4993196.86634
4993195.41598
4993193.59931
4993191.66388
4993189.93134
4993188.64968
4993188.00898
4993188.06801
4993188.90568
4993190.64884
4993193.12544
4993196.09632
4993106.45066
4993109.08754
4993111.74036
4993114.53371
4993117.54899
4993120.84845
4993124.41044
4993128.10586
4993131.71485
4993134.92435
4993137.42063
4993139.04709
4993139.84517
4993139.92016
4993139.16077
4993137.45527
4993135.02064
4993132.10845
4993128.95005
4993125.75124
4993122.6462
4993119.6742
4993116.80233
4993113.95719
4993111.05921
4993108.05424
4993104.91682
4993101.69965
4993098.49753
4993095.39935
4993092.49772
4993089.89258
4993087.73657
4993086.19179
4993085.44649
4993085.40405
4993086.08633
4993087.65424
4993089.95471
4993092.75994
4993095.80215
4993098.85569
4993101.74476
4993104.30412
4993106.43925
4993108.11896
4993109.29921
4993109.87277
4993109.91403
4993109.42692
4993108.39695
4993107.04497
4993105.51357
4993103.8696
4993102.15185
4993100.54809
4993099.26046
4993098.29768
4993097.77512
4993097.69743
4993098.18961
4993099.48328
4993101.45925
4993103.85791
4993039.01696
4993040.23482
4993042.12018
4993044.61045
4993047.6703
4993051.27782
4993055.34768
4993059.73678
4993064.249
4993068.57691
4993072.35169
4993075.35124
4993077.49592
4993078.60009
4993078.78434
4993077.9825
4993076.08206
4993073.44681
4993070.42472
4993067.3315
4993064.40815
4993061.78543
4993059.48408
4993057.4467
4993055.58113
4993053.79857
4993052.05057
4993050.34604
4993048.68429
4993046.99139
4993045.17281
4993043.27426
4993041.42766
4993039.69142
4993038.18452
4993037.06111
4993036.36404
4993036.05353
4993036.20506
4993036.89762
4993038.06102
4993039.63756
4993041.56833
4993043.75653
4993046.09766
4993048.48162
4993050.77914
4993052.81363
4993054.37412
4993055.25812
4993055.50204
4993055.16019
4993054.29131
4993053.09901
4993051.68643
4993050.11081
4993048.46628
4993046.61421
4993044.56487
4993042.49775
4993040.63287
4993039.24837
4993038.51938
4993038.45603
4993012.24561
4993013.51994
4993015.97108
4993019.17728
4993022.87759
4993026.9254
4993031.20699
4993035.62827
4993040.09584
4993044.43269
4993048.36429
4993051.67854
4993054.24125
4993055.77453
4993056.27247
4993055.81489
4993054.20133
4993051.60677
4993048.42222
4993045.03199
4993041.75727
4993038.80951
4993036.2794
4993034.16577
4993032.4243
4993031.02547
4993030.01145
4993029.31139
4993028.75859
4993028.2777
4993027.79278
4993027.2152
4993026.52299
4993025.65702
4993024.57428
4993023.32225
4993022.03981
4993020.82382
4993019.73342
4993018.89093
4993018.42834
4993018.42933
4993018.99104
4993020.1782
4993022.01414
4993024.45899
4993027.30994
4993030.26356
4993032.98603
4993035.19653
4993036.71505
4993037.41894
4993037.46676
4993036.95781
4993035.91036
4993034.29254
4993032.06324
4993029.16758
4993025.72818
4993022.0233
4993018.40644
4993015.27654
4993013.03991
4993012.07982
4993028.82642
4993031.541
4993035.21866
4993039.25112
4993043.34007
4993047.31189
4993051.10159
4993054.72089
4993058.19392
4993061.49438
4993064.52778
4993067.18231
4993069.30779
4993070.60993
4993071.0323
4993070.63933
4993069.21261
4993066.81247
4993063.72347
4993060.27925
4993056.79651
4993053.51302
4993050.56764
4993048.02948
4993045.95642
4993044.42121
4993043.45194
4993042.87418
4993042.592
4993042.53385
4993042.5873
4993042.62651
4993042.55052
4993042.23483
4993041.59322
4993040.59463
4993039.28887
4993037.82233
4993036.33636
4993034.95862
4993033.82454
4993033.12119
4993032.92549
4993033.30294
4993034.49341
4993036.62538
4993039.52837
4993042.84782
4993046.19295
4993049.22494
4993051.70037
4993053.42462
4993054.16138
4993054.10938
4993053.4061
4993051.62262
4993048.68342
4993044.78799
4993040.40084
4993036.00716
4993032.08493
4993029.09848
4993027.56799
4993027.48666
4993087.29001
4993090.6206
4993094.32057
4993097.94605
4993101.50834
4993104.87291
4993108.02495
4993111.02239
4993113.89427
4993116.63246
4993119.22092
4993121.60292
4993123.60092
4993124.96608
4993125.56016
4993125.47446
4993124.5667
4993122.75812
4993120.27858
4993117.36912
4993114.26783
4993111.17822
4993108.25258
4993105.62798
4993103.4612
4993101.86936
4993100.81233
4993100.17817
4993099.95201
4993100.00761
4993100.19601
4993100.38435
4993100.45663
4993100.28786
4993099.75829
4993098.83914
4993097.51871
4993095.87486
4993094.03903
4993092.17859
4993090.46865
4993089.09916
4993088.33507
4993088.21123
4993088.84459
4993090.54726
4993093.29554
4993096.79231
4993100.65839
4993104.47568
4993107.82172
4993110.33007
4993111.71265
4993112.06777
4993111.35112
4993109.10508
4993105.2629
4993100.38132
4993095.32573
4993090.78347
4993087.20745
4993084.97094
4993084.34946
4993085.09536
4993188.87735
4993190.58753
4993191.99178
4993193.75933
4993196.09732
4993198.91487
4993202.13434
4993205.66159
4993209.33498
4993212.95223
4993216.3382
4993219.33707
4993221.76073
4993223.44013
4993224.21917
4993224.26859
4993223.61754
4993222.18933
4993220.23508
4993217.94917
4993215.48471
4993212.95571
4993210.46295
4993208.13908
4993206.1461
4993204.58384
4993203.40442
4993202.59145
4993202.19766
4993202.10619
4993202.13557
4993202.17284
4993202.1243
4993201.8477
4993201.23111
4993200.24552
4993198.8595
4993197.09101
4993195.02437
4993192.82406
4993190.70912
4993188.9083
4993187.7361
4993187.37535
4993187.81733
4993189.17988
4993191.57853
4993194.89958
4993198.86424
4993203.00828
4993206.7473
4993209.61222
4993211.35718
4993211.917
4993211.08638
4993208.49848
4993204.41165
4993199.70011
4993195.27648
4993191.74589
4993189.17879
4993187.55467
4993187.10208
4993187.64247
4993331.30118
4993330.86803
4993330.33679
4993330.69388
4993332.29666
4993335.12332
4993338.93112
4993343.4017
4993348.19098
4993352.9106
4993357.18867
4993360.72666
4993363.3625
4993364.96956
4993365.50658
4993365.15021
4993364.01279
4993362.22897
4993360.0882
4993357.80125
4993355.48742
4993353.21429
4993351.00784
4993348.93046
4993347.08186
4993345.51182
4993344.21693
4993343.23771
4993342.65772
4993342.42135
4993342.37461
4993342.39144
4993342.3748
4993342.15942
4993341.59682
4993340.60225
4993339.12924
4993337.20671
4993334.91682
4993332.3879
4993329.84421
4993327.55551
4993325.8565
4993325.12757
4993325.3535
4993326.49075
4993328.65334
4993331.78847
4993335.68436
4993339.89602
4993343.82915
4993347.00817
4993349.16282
4993350.00211
4993349.34611
4993347.12385
4993343.8838
4993340.58855
4993337.84079
4993335.87498
4993334.31401
4993333.12134
4993332.23894
4993331.6975
4993505.13364
4993503.92427
4993503.22849
4993503.57471
4993505.24743
4993508.33981
4993512.50968
4993517.34308
4993522.42017
4993527.30157
4993531.57909
4993534.94982
4993537.28692
4993538.42359
4993538.48408
4993537.58435
4993535.74799
4993533.33831
4993530.67417
4993528.03729
4993525.57666
4993523.32951
4993521.26769
4993519.37014
4993517.6458
4993516.09721
4993514.75147
4993513.66002
4993512.90228
4993512.50826
4993512.37564
4993512.35991
4993512.34839
4993512.17286
4993511.63014
4993510.58533
4993508.99015
4993506.90507
4993504.44109
4993501.70172
4993498.88896
4993496.28135
4993494.20423
4993493.12924
4993493.10071
4993494.07012
4993496.14531
4993499.14615
4993502.8194
4993506.78979
4993510.61156
4993513.9001
4993516.31207
4993517.39681
4993517.18579
4993515.93251
4993514.15422
4993512.67069
4993511.64787
4993510.94223
4993510.17894
4993509.19088
4993507.93699
4993506.52986
4993698.54634
4993698.00713
4993698.12212
4993699.1392
4993701.26818
4993704.47959
4993708.52533
4993713.01382
4993717.55361
4993721.80244
4993725.45079
4993728.28868
4993730.20081
4993731.03541
4993730.87258
4993729.77181
4993727.73175
4993725.08068
4993722.17735
4993719.37324
4993716.86423
4993714.69337
4993712.81619
4993711.15339
4993709.63333
4993708.2284
4993706.96922
4993705.89611
4993705.05807
4993704.52652
4993704.25432
4993704.10959
4993703.9566
4993703.63205
4993702.94628
4993701.76393
4993700.0374
4993697.83533
4993695.30237
4993692.54103
4993689.70593
4993687.05975
4993684.89494
4993683.63633
4993683.43203
4993684.30022
4993686.27643
4993689.05611
4993692.28261
4993695.6567
4993698.97765
4993701.97494
4993704.22614
4993705.45191
4993705.74788
4993705.43972
4993704.97406
4993704.78134
4993704.72694
4993704.55852
4993704.05042
4993702.9545
4993701.39661
4993699.77827
4993904.66347
4993904.87329
4993905.73312
4993907.30429
4993909.54754
4993912.54261
4993916.18034
4993920.14951
4993924.10677
4993927.77581
4993930.96054
4993933.53062
4993935.34512
4993936.20107
4993936.23494
4993935.45327
4993933.70737
4993931.27331
4993928.53312
4993925.84962
4993923.45517
4993921.42766
4993919.73149
4993918.27669
4993916.96655
4993915.76301
4993914.68467
4993913.75085
4993912.97071
4993912.39568
4993912.01008
4993911.71158
4993911.36522
4993910.82215
4993909.94377
4993908.63198
4993906.84263
4993904.62538
4993902.12805
4993899.45903
4993896.76031
4993894.2576
4993892.1797
4993890.88005
4993890.56139
4993891.30139
4993893.06478
4993895.46275
4993898.07713
4993900.66473
4993903.23262
4993905.67545
4993907.49458
4993908.71703
4993909.43168
4993909.82422
4993910.16215
4993910.53745
4993910.73497
4993910.49239
4993909.61985
4993908.16517
4993906.5402
4993905.22851
4994116.90491
4994117.42971
4994118.50456
4994119.93179
4994121.77354
4994124.29056
4994127.51717
4994131.22933
4994135.08517
4994138.74951
4994142.01943
4994144.77255
4994146.83758
4994148.00638
4994148.40524
4994148.07367
4994146.80112
4994144.749
4994142.321
4994139.85896
4994137.60553
4994135.67198
4994134.05458
4994132.68511
4994131.48883
4994130.43414
4994129.52627
4994128.75572
4994128.09293
4994127.54631
4994127.1029
4994126.68708
4994126.18715
4994125.48458
4994124.49121
4994123.14853
4994121.4126
4994119.29553
4994116.92216
4994114.40489
4994111.89002
4994109.56813
4994107.60806
4994106.28159
4994105.8399
4994106.38252
4994107.80163
4994109.69741
4994111.64838
4994113.46241
4994115.25074
4994117.13076
4994118.50504
4994119.69456
4994120.73096
4994121.65255
4994122.46036
4994122.97258
4994123.04679
4994122.43695
4994121.05989
4994119.42883
4994117.99249
4994117.09342
4994329.96064
4994330.40022
4994331.12726
4994331.92984
4994333.0915
4994335.04614
4994337.97268
4994341.71562
4994345.89115
4994350.03408
4994353.81136
4994357.02713
4994359.49648
4994361.06296
4994361.75859
4994361.73467
4994360.84186
4994359.09502
4994356.91275
4994354.61359
4994352.42935
4994350.49175
4994348.83452
4994347.42917
4994346.23446
4994345.23444
4994344.41933
4994343.74864
4994343.16468
4994342.63911
4994342.14631
4994341.62907
4994341.00807
4994340.20442
4994339.17239
4994337.88326
4994336.28994
4994334.36171
4994332.18241
4994329.86148
4994327.53457
4994325.37025
4994323.50061
4994322.11982
4994321.52441
4994321.81588
4994322.81939
4994324.1781
4994325.51518
4994326.68336
4994327.81109
4994329.24902
4994330.28713
4994331.48924
4994332.77903
4994334.09062
4994335.21215
4994335.74236
4994335.60671
4994334.68365
4994333.18902
4994331.76158
4994330.63573
4994330.02969
4994538.21378
4994538.40056
4994538.58433
4994538.7049
4994539.21451
4994540.66924
4994543.37569
4994547.23227
4994551.82266
4994556.56891
4994560.97063
4994564.70349
4994567.56566
4994569.45546
4994570.34234
4994570.47475
4994569.78878
4994568.21446
4994566.16649
4994563.94754
4994561.7711
4994559.77491
4994558.02077
4994556.51762
4994555.25677
4994554.23346
4994553.42178
4994552.75749
4994552.16718
4994551.59889
4994551.01241
4994550.36314
4994549.60464
4994548.69851
4994547.63597
4994546.41346
4994544.98631
4994543.28909
4994541.35151
4994539.26492
4994537.14248
4994535.13341
4994533.35234
4994531.9317
4994531.19338
4994531.2205
4994531.80047
4994532.65403
4994533.46881
4994534.13444
4994534.76237
4994535.84757
4994536.65497
4994537.86867
4994539.34658
4994540.91129
4994542.21822
4994542.75844
4994542.49215
4994541.53326
4994540.32659
4994539.36726
4994538.64516
4994538.26001
4994736.05855
4994736.03019
4994735.77296
4994735.41889
4994735.46771
4994736.53912
4994739.05529
4994742.95154
4994747.816
4994753.02441
4994757.94602
4994762.11527
4994765.3041
4994767.44258
4994768.47235
4994768.69396
4994768.11632
4994766.64686
4994764.67589
4994762.50304
4994760.32674
4994758.27941
4994756.43679
4994754.83424
4994753.48643
4994752.39319
4994751.51599
4994750.77882
4994750.10122
4994749.41673
4994748.67394
4994747.8383
4994746.89422
4994745.8412
4994744.7039
4994743.50414
4994742.2102
4994740.73946
4994739.06433
4994737.2438
4994735.36194
4994733.54475
4994731.8983
4994730.5244
4994729.67422
4994729.45775
4994729.68212
4994730.08899
4994730.47043
4994730.74662
4994731.01436
4994731.736
4994732.39882
4994733.55973
4994735.12082
4994736.78605
4994738.13673
4994738.65974
4994738.38812
4994737.64335
4994736.91716
4994736.50415
4994736.23136
4994736.08432
4994919.05706
4994918.93263
4994918.44203
4994917.85951
4994917.67452
4994918.49113
4994920.83599
4994924.67851
4994929.63337
4994935.08935
4994940.35192
4994944.84725
4994948.31163
4994950.67463
4994951.85342
4994952.16776
4994951.69295
4994950.33197
4994948.43838
4994946.31919
4994944.16433
4994942.09513
4994940.19052
4994938.50181
4994937.05893
4994935.86458
4994934.87481
4994934.01085
4994933.18913
4994932.33389
4994931.38614
4994930.31999
4994929.14742
4994927.90207
4994926.63836
4994925.40292
4994924.18411
4994922.89986
4994921.47664
4994919.93216
4994918.3209
4994916.7427
4994915.29238
4994914.04946
4994913.17393
4994912.7601
4994912.68976
4994912.7381
4994912.76633
4994912.74376
4994912.72766
4994913.06001
4994913.66035
4994914.67798
4994916.1967
4994917.80445
4994919.05968
4994919.53185
4994919.33795
4994918.91062
4994918.68295
4994918.76481
4994918.90381
4994919.02635
4995094.11324
4995093.99853
4995093.47098
4995092.85053
4995092.60966
4995093.31352
4995095.52592
4995099.26789
4995104.19196
4995109.73265
4995115.18891
4995119.9285
4995123.64693
4995126.24968
4995127.62646
4995128.06881
4995127.73091
4995126.52591
4995124.74304
4995122.70135
4995120.58858
4995118.51432
4995116.55579
4995114.77496
4995113.21464
4995111.88377
4995110.74021
4995109.70586
4995108.69412
4995107.62333
4995106.42982
4995105.09518
4995103.65612
4995102.17764
4995100.741
4995099.41596
4995098.21363
4995097.06479
4995095.86848
4995094.59965
4995093.28352
4995091.99153
4995090.79926
4995089.76162
4995088.95542
4995088.383
4995088.0609
4995087.84024
4995087.57062
4995087.29129
4995087.03684
4995087.03369
4995087.55859
4995088.36019
4995089.70777
4995091.10441
4995092.14354
4995092.53319
4995092.45172
4995092.36802
4995092.58222