/*--------------------------------*- C++ -*----------------------------------*\
  =========                 |
  \\      /  F ield         | OpenFOAM: The Open Source CFD Toolbox
   \\    /   O peration     | Website:  https://openfoam.org
    \\  /    A nd           | Version:  6
     \\/     M anipulation  |
\*---------------------------------------------------------------------------*/
FoamFile
{
    version     2.0;
    format      ascii;
    class       volScalarField;
    location    "3e-08";
    object      rho;
}
// * * * * * * * * * * * * * * * * * * * * * * * * * * * * * * * * * * * * * //

dimensions      [1 -3 0 0 0 0 0];

internalField   nonuniform List<scalar> 
12288
(
27.930055112
27.9300539655
27.9300525205
27.930050782
27.9300487584
27.9300464573
27.9300438803
27.9300410216
27.9300378613
27.930034375
27.9300305402
27.9300263471
27.9300218135
27.9300169875
27.9300119368
27.9300067518
27.9300015301
27.9299963586
27.929991311
27.9299864432
27.9299817807
27.9299773032
27.9299729669
27.9299687409
27.9299646262
27.9299606265
27.9299567377
27.9299530243
27.9299498023
27.9299469403
27.929944338
27.9299420793
27.929940332
27.929939207
27.9299386984
27.9299388429
27.9299398762
27.9299418828
27.9299447824
27.9299485502
27.9299531441
27.9299585177
27.9299646121
27.9299713388
27.9299785802
27.9299861946
27.9299940329
27.9300019494
27.9300098065
27.9300174515
27.9300247077
27.9300313942
27.9300373634
27.9300425163
27.930046789
27.9300501423
27.930052535
27.9300542904
27.930055525
27.9300562959
27.930056685
27.930056749
27.930056509
27.9300559563
27.9294075383
27.9294076931
27.9294070811
27.9294055752
27.9294033548
27.9294005415
27.929397221
27.929393463
27.9293893312
27.92938487
27.9293801125
27.929375091
27.9293698473
27.9293644389
27.9293589472
27.9293534586
27.9293480537
27.9293428014
27.9293377333
27.9293328171
27.9293279536
27.9293230113
27.9293178527
27.9293123668
27.9293064835
27.929300177
27.9292934445
27.9292863224
27.9292788782
27.9292711267
27.9292630559
27.9292547316
27.9292463128
27.9292379856
27.9292299571
27.9292224942
27.9292158855
27.9292103878
27.9292062502
27.9292036926
27.9292026428
27.9292033492
27.9292062578
27.9292112729
27.9292183166
27.9292273795
27.9292382829
27.9292507523
27.9292644698
27.9292790597
27.9292940799
27.9293090635
27.9293235718
27.9293372351
27.9293497681
27.9293609811
27.9293708015
27.929379293
27.9293865108
27.929392349
27.9293973108
27.9294013391
27.9294044172
27.9294065264
27.9282583337
27.928260857
27.9282617116
27.9282611967
27.9282594793
27.9282566903
27.9282530381
27.9282486966
27.928243843
27.9282386203
27.9282331486
27.9282275295
27.9282218557
27.9282162083
27.9282106616
27.9282052913
27.9282001643
27.9281953124
27.928190701
27.928186224
27.92818173
27.9281770623
27.9281720838
27.9281666905
27.9281608081
27.9281543833
27.9281473753
27.9281397472
27.9281314459
27.9281224279
27.9281126585
27.9281021363
27.9280909162
27.928079132
27.9280669999
27.9280547848
27.9280427658
27.9280312247
27.9280204369
27.928010714
27.9280025171
27.9279964202
27.9279930266
27.927991739
27.9279930213
27.9279976531
27.9280054554
27.9280162279
27.9280298264
27.9280458714
27.9280637872
27.9280829673
27.9281027983
27.9281226758
27.9281420723
27.9281605501
27.9281777891
27.9281935839
27.9282078117
27.9282204063
27.9282313489
27.9282405434
27.9282480047
27.9282539941
27.9275084705
27.9275146703
27.9275186303
27.9275202338
27.9275202205
27.9275190177
27.9275165722
27.9275132025
27.9275091012
27.9275044576
27.9274994392
27.9274941762
27.9274887527
27.9274831951
27.9274775305
27.9274718138
27.9274661111
27.9274604711
27.9274549079
27.9274494051
27.9274439312
27.9274384563
27.9274329565
27.9274274071
27.9274217722
27.9274159976
27.9274100099
27.9274037219
27.9273970393
27.9273898689
27.9273821178
27.927373714
27.9273646294
27.9273548834
27.9273445415
27.9273337333
27.9273225784
27.9273111624
27.9272995736
27.9272880158
27.9272768059
27.9272663365
27.9272570847
27.9272496756
27.9272448649
27.9272428473
27.9272430864
27.9272463887
27.9272533979
27.92726353
27.9272766383
27.9272922786
27.9273099426
27.9273290903
27.9273491979
27.9273697064
27.927390123
27.9274100111
27.9274289772
27.9274466944
27.9274628823
27.9274773111
27.9274897954
27.9275001986
27.9272372364
27.9272467719
27.9272541645
27.9272595118
27.9272627711
27.9272641411
27.927264407
27.9272638989
27.92726244
27.9272601461
27.9272570999
27.9272533857
27.9272489315
27.9272436321
27.9272374963
27.9272306177
27.9272231641
27.9272153509
27.9272073971
27.9271994998
27.9271918235
27.9271844969
27.9271776089
27.9271711972
27.9271652433
27.9271596797
27.9271544082
27.9271493194
27.9271443066
27.9271392661
27.9271340925
27.9271287001
27.9271230372
27.9271170615
27.9271107171
27.927103956
27.9270968602
27.9270893575
27.9270812442
27.9270725339
27.9270632677
27.927053641
27.9270440216
27.9270348574
27.9270265349
27.9270195312
27.9270147278
27.9270126901
27.9270127517
27.9270150451
27.927020419
27.9270289494
27.9270396714
27.927052726
27.9270678166
27.9270846235
27.9271027296
27.9271217005
27.9271410066
27.9271601353
27.927178591
27.9271959113
27.9272116667
27.9272255119
27.9269919143
27.9270013541
27.9270089686
27.9270149728
27.9270194541
27.9270225412
27.9270245909
27.9270260082
27.9270269946
27.9270275557
27.9270268724
27.9270257045
27.9270234288
27.927019628
27.9270143566
27.9270076967
27.9269998779
27.9269912782
27.9269822875
27.9269732523
27.9269644493
27.9269560795
27.9269482606
27.9269410227
27.9269343278
27.9269281013
27.9269222603
27.926916733
27.9269114621
27.9269063824
27.9269014287
27.926896589
27.9268918496
27.926887191
27.9268826341
27.9268781817
27.9268735683
27.9268687299
27.9268642265
27.9268595284
27.9268543422
27.9268488523
27.9268432334
27.9268376038
27.9268320811
27.9268268543
27.9268225518
27.9268198484
27.9268187231
27.92681899
27.9268210449
27.9268250407
27.9268311212
27.9268400248
27.9268491904
27.9268603226
27.9268733668
27.9268878908
27.9269035975
27.9269199897
27.9269364948
27.9269524618
27.9269672806
27.9269805181
27.9261881361
27.9261973936
27.9262052539
27.9262119095
27.92621761
27.9262226228
27.9262271674
27.9262313143
27.9262350931
27.9262384534
27.9262409302
27.9262423265
27.9262426956
27.9262412837
27.9262377105
27.9262322519
27.9262252965
27.9262172835
27.9262086958
27.9261999829
27.9261914949
27.9261834409
27.9261758846
27.9261687972
27.9261621287
27.9261558505
27.9261499507
27.9261444142
27.926139224
27.9261343499
27.9261297552
27.926125425
27.926121327
27.9261174522
27.926113825
27.9261104627
27.9261073259
27.9261044191
27.9261015713
27.9260992185
27.9260967936
27.9260945222
27.9260922482
27.9260897788
27.9260870816
27.9260840641
27.9260808941
27.9260777715
27.9260751342
27.9260736113
27.9260730725
27.9260733063
27.9260745412
27.9260769624
27.9260811217
27.9260863631
27.9260929691
27.92610172
27.9261125423
27.926124959
27.92613837
27.9261520192
27.9261652169
27.92617738
27.9253167102
27.9253233989
27.925328915
27.9253334693
27.9253374526
27.9253413207
27.9253453529
27.9253494991
27.9253535957
27.9253575345
27.9253611143
27.9253639916
27.9253655072
27.9253656685
27.925364584
27.9253617911
27.9253577073
27.9253527788
27.9253474343
27.9253420149
27.9253367045
27.9253315145
27.9253263442
27.9253210871
27.9253157085
27.9253102554
27.9253048171
27.9252994844
27.9252943572
27.9252895338
27.9252851012
27.9252810133
27.9252772321
27.9252737576
27.9252705776
27.9252677137
27.9252652392
27.9252632845
27.9252617668
27.9252607048
27.9252606998
27.9252611549
27.9252620937
27.9252633112
27.9252646543
27.9252658512
27.9252667248
27.9252670317
27.9252667009
27.925266078
27.9252653231
27.9252643233
27.9252631056
27.9252617601
27.9252607378
27.9252612886
27.9252615152
27.9252633026
27.9252673883
27.9252736096
27.9252816162
27.9252906915
27.9253000036
27.925308837
27.9241252648
27.9241322282
27.9241380875
27.9241428211
27.9241466849
27.9241500823
27.9241533268
27.9241564768
27.9241594233
27.9241618408
27.924163407
27.9241646217
27.9241646542
27.9241638002
27.9241620172
27.9241594887
27.9241565058
27.9241533817
27.9241503731
27.9241475949
27.9241449886
27.9241423792
27.924139572
27.9241364301
27.9241329022
27.9241290137
27.9241248373
27.9241204741
27.9241161111
27.9241120386
27.9241083459
27.9241049609
27.9241020261
27.9240996302
27.9240977867
27.9240964854
27.924095698
27.9240954457
27.9240956511
27.9240962356
27.9240974976
27.9240997516
27.9241025188
27.9241057272
27.924109209
27.9241127858
27.9241161724
27.9241188921
27.9241203549
27.9241205394
27.9241193886
27.924116595
27.9241124858
27.9241076169
27.9241026677
27.9240984626
27.9240945741
27.9240917224
27.9240909255
27.92409214
27.9240959992
27.9241020519
27.9241095085
27.924117501
27.9224989297
27.9225093807
27.9225192854
27.9225281455
27.9225357492
27.9225421424
27.9225474792
27.9225518091
27.9225549361
27.9225564717
27.9225567229
27.9225556441
27.9225530394
27.922549216
27.9225446058
27.9225396519
27.922534754
27.9225302444
27.9225263388
27.9225230916
27.922520391
27.9225180265
27.9225157906
27.9225135318
27.9225111277
27.9225084739
27.9225055125
27.9225022533
27.9224988344
27.9224954382
27.9224921179
27.9224889775
27.9224863387
27.9224844473
27.9224834959
27.9224833779
27.9224839539
27.9224853001
27.9224873273
27.9224898728
27.9224927939
27.9224962524
27.9225005448
27.922505331
27.922510515
27.9225157969
27.9225209703
27.9225254724
27.9225285473
27.9225297356
27.9225285292
27.9225242638
27.9225173853
27.9225089651
27.9224999237
27.9224909652
27.922482953
27.9224760328
27.922471621
27.9224693111
27.9224696171
27.9224730158
27.9224797121
27.9224887072
27.9204001543
27.920414339
27.9204291394
27.9204435302
27.9204566761
27.9204680594
27.9204775316
27.9204850501
27.920490093
27.9204920064
27.9204918596
27.9204897691
27.9204852471
27.9204786693
27.9204706489
27.9204618008
27.9204526874
27.9204437844
27.9204354697
27.9204279935
27.920421455
27.9204158165
27.9204109763
27.9204068139
27.9204031816
27.9203998597
27.9203967591
27.9203934791
27.9203898863
27.9203860035
27.9203818317
27.9203775088
27.9203733663
27.920369689
27.9203668174
27.9203650553
27.9203643078
27.9203644753
27.920365758
27.9203681196
27.9203713488
27.9203753695
27.9203802735
27.9203862669
27.9203932911
27.9204011608
27.9204095671
27.9204179126
27.9204254762
27.920431183
27.9204339434
27.9204334578
27.9204294344
27.9204222339
27.9204132769
27.9204035761
27.9203941577
27.920385826
27.9203790804
27.9203743912
27.9203723487
27.9203734453
27.9203785178
27.9203877854
27.9178792367
27.9178929876
27.917908987
27.9179258984
27.9179424221
27.9179574613
27.9179703805
27.9179809584
27.9179886049
27.9179923907
27.9179933909
27.9179923671
27.9179886329
27.9179821817
27.9179734301
27.9179629336
27.9179512906
27.9179390977
27.9179269253
27.917915263
27.9179044817
27.917894829
27.9178864659
27.9178794656
27.9178737561
27.9178691103
27.9178652202
27.9178615567
27.9178574522
27.9178530502
27.9178481203
27.9178425719
27.9178365539
27.9178302819
27.9178241047
27.9178184166
27.9178135171
27.9178096946
27.9178072864
27.91780633
27.9178069295
27.9178093817
27.917813681
27.9178198317
27.917828197
27.9178389627
27.9178516109
27.9178654774
27.9178796619
27.9178929571
27.9179040295
27.9179114668
27.9179144678
27.9179136311
27.9179095076
27.9179026355
27.9178944359
27.9178864552
27.9178778858
27.9178701838
27.9178646268
27.9178621815
27.9178633201
27.9178689977
27.9152385834
27.9152469455
27.9152592715
27.9152743161
27.9152906806
27.9153068949
27.915321781
27.9153347263
27.9153452744
27.9153526467
27.9153567877
27.9153586395
27.9153583971
27.9153555762
27.9153500044
27.9153419999
27.9153320025
27.915320606
27.9153084455
27.9152961387
27.9152842288
27.9152731987
27.9152634724
27.9152553285
27.9152487963
27.9152436908
27.9152397715
27.9152367345
27.915233626
27.9152305538
27.915227038
27.9152228796
27.9152178225
27.9152118423
27.915205056
27.9151977091
27.9151901977
27.9151830038
27.9151765273
27.9151712866
27.9151680802
27.9151671076
27.9151684676
27.9151727476
27.9151803911
27.9151916805
27.9152063064
27.9152233839
27.9152418675
27.9152603704
27.9152772097
27.9152907839
27.9152998583
27.9153034574
27.9153028159
27.9152988236
27.9152920204
27.9152827399
27.9152712431
27.9152595512
27.9152487796
27.9152402135
27.9152357003
27.9152351074
27.9129312126
27.9129342724
27.9129422722
27.912954378
27.9129693332
27.9129856059
27.9130016411
27.9130164036
27.9130293444
27.9130398702
27.9130475234
27.9130525692
27.9130551646
27.9130556283
27.9130539442
27.9130494282
27.9130424516
27.913033567
27.9130233741
27.9130125191
27.9130015794
27.9129910864
27.9129814896
27.9129731004
27.9129660568
27.9129603727
27.9129560735
27.9129533179
27.9129514928
27.9129504362
27.9129497864
27.9129491846
27.9129482854
27.9129467264
27.9129442458
27.9129406885
27.9129359824
27.912930458
27.9129244622
27.9129184454
27.9129130843
27.9129093329
27.9129079834
27.9129093036
27.9129138928
27.9129223473
27.9129345268
27.9129497704
27.9129669949
27.912984621
27.9130006736
27.9130134242
27.9130218136
27.9130250392
27.9130246145
27.9130210484
27.9130127728
27.9130008801
27.9129869279
27.912972611
27.9129587535
27.9129462723
27.912936833
27.9129320278
27.9112438305
27.9112486751
27.9112574106
27.9112694453
27.9112841469
27.9113003126
27.9113165505
27.9113317537
27.9113451332
27.911356201
27.9113645576
27.9113699316
27.9113722818
27.9113724371
27.9113706331
27.9113661434
27.911359274
27.9113504721
27.9113403029
27.9113294029
27.9113183614
27.9113075371
27.9112971054
27.9112872815
27.911278351
27.9112704438
27.9112637628
27.9112585033
27.9112548604
27.9112528848
27.9112524341
27.9112532323
27.9112551
27.9112576266
27.9112602984
27.9112626416
27.9112642827
27.9112649153
27.9112642642
27.911262764
27.9112607651
27.911258648
27.9112575374
27.9112579635
27.9112604403
27.911265622
27.9112734029
27.9112834438
27.911294896
27.9113063505
27.9113160048
27.9113228736
27.9113264516
27.9113266777
27.9113241216
27.9113178899
27.9113080658
27.9112960328
27.9112833393
27.9112711301
27.9112602419
27.9112511426
27.911244769
27.9112424349
27.9101546083
27.9101660011
27.9101785074
27.9101921847
27.9102068702
27.9102219844
27.9102368759
27.9102507476
27.910262781
27.9102723721
27.9102789676
27.9102818905
27.9102820877
27.9102798674
27.9102747721
27.9102672947
27.9102577495
27.9102466022
27.910234508
27.9102220793
27.9102097158
27.9101975647
27.910185601
27.9101738041
27.910162245
27.9101509295
27.9101398356
27.9101294649
27.9101206116
27.9101134955
27.9101082858
27.9101053681
27.9101045124
27.9101056363
27.9101087053
27.9101132251
27.9101188758
27.9101252025
27.9101316558
27.9101377417
27.9101432146
27.9101480428
27.910152366
27.9101564066
27.9101606126
27.9101652376
27.9101701251
27.9101750402
27.9101795079
27.9101826612
27.910183873
27.9101840059
27.9101827869
27.9101793603
27.9101736121
27.9101656444
27.9101566961
27.9101482603
27.910141161
27.9101361563
27.9101343055
27.9101353785
27.9101390157
27.9101454364
27.909480168
27.9094936002
27.9095066318
27.9095197202
27.9095330694
27.9095467521
27.9095605976
27.9095740375
27.9095862393
27.9095963159
27.909603321
27.9096064947
27.9096068089
27.9096043916
27.9095986397
27.9095900911
27.9095793242
27.9095670564
27.9095541071
27.9095411579
27.9095285847
27.9095164582
27.9095045725
27.9094926496
27.9094805146
27.9094680477
27.9094552262
27.9094423304
27.9094298281
27.909417973
27.9094080152
27.909399519
27.909393088
27.9093895098
27.9093885497
27.9093899559
27.909394159
27.9094010218
27.9094100262
27.9094204247
27.9094313336
27.9094420441
27.909451996
27.9094608038
27.9094683245
27.9094745418
27.9094792542
27.9094821701
27.9094830048
27.9094818462
27.9094790127
27.9094752003
27.9094708309
27.9094652149
27.9094581167
27.9094505027
27.9094436415
27.9094385113
27.9094358607
27.9094359872
27.9094391789
27.9094459425
27.9094556349
27.9094673052
27.9091199771
27.9091304289
27.9091409474
27.9091520271
27.9091639787
27.9091770317
27.9091910891
27.9092056392
27.9092198133
27.9092323739
27.9092420965
27.9092483958
27.9092514642
27.9092516844
27.9092486053
27.9092418173
27.9092321837
27.9092206845
27.9092082252
27.9091956123
27.9091833692
27.9091716434
27.9091603012
27.9091490528
27.9091375853
27.9091256888
27.9091132639
27.9091005192
27.9090878319
27.9090755667
27.9090640997
27.9090538209
27.9090453377
27.9090392868
27.9090363954
27.9090362877
27.9090390568
27.9090453437
27.9090545333
27.9090657027
27.9090777737
27.9090898416
27.9091012102
27.9091112377
27.9091195745
27.9091261225
27.9091307183
27.9091329253
27.9091330501
27.9091311073
27.9091270246
27.9091216817
27.90911565
27.9091091957
27.9091024539
27.9090961533
27.909091116
27.9090873849
27.9090854131
27.9090851962
27.9090872227
27.9090923855
27.9091002112
27.9091097064
27.9088555584
27.9088604005
27.9088678612
27.9088777057
27.908889795
27.9089040346
27.9089200795
27.9089373625
27.908955106
27.9089720919
27.9089868721
27.9089985887
27.9090069442
27.9090112032
27.9090118454
27.9090086034
27.9090010523
27.9089906394
27.908978724
27.9089665449
27.908955044
27.9089447261
27.9089356623
27.9089276171
27.9089202227
27.9089131309
27.9089061543
27.9088993349
27.9088926783
27.9088859005
27.9088786296
27.9088710537
27.9088637062
27.9088568222
27.9088508793
27.9088464941
27.9088438247
27.9088426993
27.9088434481
27.9088463504
27.9088510862
27.9088574157
27.9088650939
27.9088737383
27.9088829474
27.9088923008
27.9089012966
27.9089092384
27.9089153019
27.9089186924
27.9089195709
27.9089181444
27.9089146583
27.9089099356
27.9089043775
27.9088981974
27.9088917833
27.9088845991
27.9088766739
27.908868698
27.9088615162
27.9088562068
27.9088534341
27.9088532737
27.9087500785
27.9087550673
27.9087647069
27.908777339
27.9087919371
27.9088079171
27.908824821
27.9088422713
27.9088598941
27.9088769839
27.9088924533
27.9089054717
27.908915518
27.9089214907
27.9089234045
27.9089215535
27.9089151403
27.9089048893
27.9088923391
27.9088789997
27.908866133
27.9088545661
27.9088446477
27.9088363617
27.9088295226
27.9088240077
27.9088199915
27.9088172066
27.9088149909
27.9088130491
27.908811083
27.9088087444
27.9088059606
27.9088025035
27.9087982057
27.9087932626
27.9087882291
27.9087834764
27.908779223
27.908775955
27.9087741763
27.9087742281
27.9087764846
27.9087811886
27.908788435
27.9087980617
27.9088092696
27.9088208706
27.9088315587
27.9088402244
27.9088461566
27.9088488827
27.9088490381
27.908847008
27.9088428764
27.9088365364
27.9088278182
27.9088164916
27.9088030256
27.9087885064
27.9087743195
27.9087620279
27.9087532249
27.9087494406
27.9088173368
27.9088279949
27.9088425004
27.9088584364
27.908874609
27.9088903223
27.9089053118
27.9089196196
27.9089333384
27.9089463601
27.9089583091
27.908968747
27.9089770838
27.9089821541
27.908983776
27.9089821817
27.908976494
27.908966983
27.9089547739
27.908941184
27.9089274645
27.9089145524
27.9089029907
27.9088930412
27.908884918
27.9088789038
27.908875121
27.908872876
27.9088717845
27.9088715674
27.9088717802
27.9088719253
27.9088716077
27.9088703386
27.9088677787
27.9088638082
27.9088586281
27.9088528197
27.9088469406
27.9088414968
27.9088370247
27.9088342651
27.9088335032
27.9088349985
27.9088397066
27.908848124
27.9088595707
27.9088726504
27.9088858281
27.9088977682
27.9089075145
27.9089143056
27.9089171968
27.9089169783
27.908914227
27.9089072528
27.908895752
27.9088804701
27.9088632159
27.9088458965
27.9088303988
27.9088185598
27.9088124631
27.9088121056
27.9090519134
27.9090651273
27.9090798649
27.9090943048
27.9091084697
27.9091218129
27.9091342749
27.9091460934
27.9091573888
27.9091681368
27.9091782855
27.9091876176
27.9091954311
27.9092007489
27.909203054
27.9092026728
27.9091990284
27.9091918338
27.909181999
27.9091704791
27.9091582214
27.9091460343
27.909134518
27.9091242047
27.9091157034
27.9091094772
27.9091053709
27.9091029293
27.9091020781
27.9091023339
27.9091031043
27.9091038549
27.9091041371
27.9091034569
27.9091013414
27.9090976844
27.9090924378
27.9090859159
27.9090786448
27.9090712863
27.9090645307
27.9090591266
27.9090561205
27.9090556315
27.9090581237
27.9090648571
27.9090757288
27.9090895458
27.9091048084
27.9091198741
27.909133087
27.9091430014
27.9091484578
27.9091498561
27.9091470673
27.9091382859
27.9091232167
27.9091040019
27.9090840383
27.9090660446
27.9090518153
27.9090428666
27.9090403646
27.909043276
27.909456375
27.9094633236
27.909469061
27.9094762038
27.9094855459
27.9094967062
27.9095093889
27.90952324
27.9095376318
27.9095517828
27.9095650257
27.9095767587
27.9095862424
27.9095928197
27.9095958632
27.9095960429
27.909593459
27.9095878026
27.909580073
27.9095710344
27.9095612983
27.9095513213
27.9095415006
27.9095323547
27.9095245229
27.9095184061
27.9095138074
27.9095106482
27.9095091365
27.9095088046
27.909508935
27.909509084
27.9095088798
27.9095077631
27.9095052998
27.9095013841
27.909495891
27.9094888938
27.9094807301
27.9094720526
27.9094637257
27.9094566446
27.9094520477
27.9094506391
27.9094523762
27.9094577518
27.9094672364
27.9094803616
27.9094960156
27.9095123766
27.9095271467
27.9095384656
27.9095453452
27.909547545
27.909544302
27.9095341404
27.9095180284
27.9094993897
27.9094818318
27.9094677755
27.9094575153
27.9094510166
27.9094492282
27.9094514022
27.9100208584
27.9100193265
27.9100173243
27.9100188363
27.9100252396
27.910036408
27.9100514013
27.9100689741
27.9100877797
27.9101063006
27.9101230883
27.910136974
27.910147327
27.9101536492
27.9101557642
27.9101543721
27.9101499094
27.9101428982
27.9101344791
27.9101254771
27.9101163633
27.9101074118
27.9100987253
27.9100905505
27.9100832878
27.9100771396
27.9100720833
27.9100682705
27.910066034
27.9100651448
27.9100649812
27.9100650534
27.9100649826
27.9100641116
27.9100618643
27.9100579159
27.9100520833
27.910044481
27.9100354351
27.9100254558
27.9100154303
27.9100064165
27.9099997308
27.9099968728
27.9099977644
27.9100022336
27.9100107604
27.9100231437
27.9100385394
27.9100551921
27.9100707512
27.9100833215
27.9100918274
27.9100951294
27.9100925573
27.9100837787
27.9100709051
27.910057761
27.9100467555
27.9100388557
27.9100325737
27.9100277968
27.9100243467
27.9100222944
27.9107082836
27.9107035425
27.9107007931
27.9107021761
27.910708809
27.9107210288
27.9107374809
27.910756536
27.9107765478
27.9107957775
27.9108126215
27.9108258949
27.9108350952
27.910839563
27.9108397955
27.9108362538
27.910829019
27.9108195301
27.9108090482
27.910798672
27.9107889861
27.9107801388
27.9107720204
27.9107645481
27.9107577729
27.9107517034
27.9107464414
27.910742186
27.910739254
27.9107377546
27.9107372644
27.9107372197
27.9107371873
27.9107364968
27.9107343446
27.9107302056
27.9107238922
27.9107156439
27.9107059002
27.9106950674
27.9106839513
27.910673648
27.910665441
27.9106612023
27.9106610875
27.9106648822
27.9106730489
27.9106849042
27.9106994477
27.9107151912
27.9107303509
27.9107433926
27.9107529523
27.9107572368
27.9107564042
27.9107514105
27.9107442544
27.9107382421
27.910734064
27.9107311717
27.9107280819
27.9107241439
27.9107192276
27.910713737
27.9114742007
27.9114720477
27.9114724619
27.9114764592
27.9114848916
27.9114976096
27.9115136112
27.9115313452
27.9115492704
27.9115660371
27.9115804168
27.9115915816
27.9115990861
27.9116023458
27.9116016658
27.911597282
27.9115891996
27.9115787238
27.9115672648
27.9115562066
27.9115463176
27.9115377638
27.9115303693
27.9115238247
27.9115178503
27.9115123388
27.9115074091
27.911503218
27.9114999601
27.9114979136
27.9114968787
27.9114963344
27.9114957548
27.911494492
27.9114917882
27.9114871115
27.9114802764
27.9114715568
27.9114615285
27.9114505947
27.9114393644
27.9114288793
27.9114202981
27.9114153131
27.9114145003
27.9114179003
27.9114256813
27.9114366781
27.9114494856
27.9114629078
27.9114761336
27.9114880718
27.9114970361
27.9115019016
27.91150306
27.9115017811
27.9114998228
27.9114989494
27.9114986534
27.9114979389
27.9114959251
27.9114916114
27.911485474
27.9114790861
27.9122870484
27.9122878588
27.9122912374
27.9122974714
27.9123063959
27.912318293
27.9123327029
27.9123483852
27.9123639902
27.9123784357
27.9123909497
27.91240102
27.912408101
27.912411419
27.9124114918
27.9124083326
27.9124013767
27.9123917252
27.9123808839
27.9123702838
27.9123608387
27.9123528506
27.9123461749
27.9123404557
27.9123353111
27.9123305911
27.9123263692
27.9123227208
27.9123196814
27.9123174545
27.9123159708
27.9123148233
27.9123134826
27.9123113578
27.9123078941
27.9123027021
27.9122956089
27.9122868161
27.9122769151
27.912266332
27.9122556248
27.9122456893
27.9122374351
27.9122322771
27.9122310126
27.9122339211
27.9122408808
27.9122503905
27.9122608022
27.9122711392
27.9122814169
27.9122911976
27.9122984772
27.9123033442
27.9123061403
27.9123076239
27.9123088786
27.9123102948
27.9123110446
27.9123100888
27.9123066788
27.9123009584
27.9122945225
27.912289303
27.913123313
27.9131254007
27.9131296933
27.9131354208
27.9131428036
27.9131528365
27.9131656231
27.9131802661
27.913195425
27.9132097941
27.9132225912
27.9132333451
27.9132413905
27.9132459142
27.9132474326
27.9132460549
27.9132409547
27.9132328032
27.9132231897
27.9132134625
27.9132045786
27.9131969716
27.9131906196
27.9131852486
27.9131805608
27.913176431
27.9131728818
27.9131698766
27.913167297
27.9131651776
27.9131634642
27.9131618551
27.913159908
27.91315715
27.9131532269
27.9131479048
27.913141011
27.9131326002
27.9131231758
27.9131131811
27.9131031918
27.9130939645
27.9130861713
27.9130809054
27.9130791589
27.9130813047
27.9130869248
27.913094468
27.9131022706
27.9131095555
27.9131167566
27.9131243277
27.9131298488
27.9131345805
27.9131386491
27.9131422317
27.9131453631
27.9131473478
27.9131476362
27.9131452492
27.9131398271
27.9131333714
27.9131276534
27.9131240643
27.9139623441
27.9139641203
27.9139670894
27.9139703866
27.9139751033
27.9139829242
27.9139945237
27.9140092744
27.9140256687
27.9140418901
27.9140566553
27.9140692135
27.9140788443
27.9140849377
27.9140876381
27.9140874868
27.9140838953
27.9140769561
27.9140683196
27.9140592418
27.9140506386
27.9140430254
27.9140365273
27.9140310247
27.9140263499
27.9140224401
27.9140192605
27.9140166526
27.9140143865
27.9140123513
27.9140104453
27.9140084396
27.9140060173
27.9140028609
27.9139987838
27.91399367
27.9139873334
27.9139796587
27.9139709896
27.9139617608
27.9139525076
27.9139438993
27.9139364621
27.9139309801
27.9139286304
27.9139297983
27.9139337901
27.9139392224
27.9139446035
27.9139493311
27.9139539123
27.91395974
27.9139639231
27.9139687014
27.913973778
27.9139789166
27.9139833029
27.9139853706
27.9139848376
27.9139811916
27.913975251
27.9139695506
27.9139650341
27.9139626122
27.9147823402
27.9147831267
27.9147839641
27.9147845696
27.914786709
27.9147925544
27.9148032882
27.9148184949
27.9148365317
27.914855132
27.9148723547
27.9148869497
27.9148981319
27.9149055111
27.9149089597
27.9149094376
27.9149066783
27.9149004222
27.9148923201
27.9148835613
27.91487499
27.9148671472
27.9148602694
27.9148543835
27.9148494503
27.9148454517
27.9148422898
27.9148397117
27.9148374255
27.9148352265
27.9148329563
27.9148304362
27.9148274779
27.9148239228
27.9148197306
27.9148148845
27.9148092062
27.9148024406
27.914794718
27.914786406
27.9147779527
27.9147699515
27.9147628588
27.9147572126
27.9147543
27.9147544306
27.9147567532
27.9147601953
27.9147635129
27.9147662475
27.9147688424
27.9147732771
27.9147765421
27.9147813723
27.9147872076
27.9147933666
27.9147985054
27.9148006217
27.9147995653
27.9147957411
27.9147908909
27.9147870044
27.9147840648
27.9147825165
27.9155614757
27.9155614072
27.9155604949
27.915559197
27.9155595
27.9155638306
27.9155738175
27.9155891975
27.9156083384
27.9156287837
27.9156480708
27.9156643923
27.9156768665
27.9156852276
27.9156892302
27.9156900616
27.9156877333
27.915681886
27.9156740842
27.9156655034
27.9156569276
27.9156488785
27.9156416486
27.9156353695
27.915630094
27.9156258226
27.9156224065
27.9156195454
27.9156169198
27.9156142677
27.9156113866
27.915608138
27.9156044547
27.9156003275
27.9155958486
27.9155911014
27.9155859571
27.915580089
27.9155733992
27.9155661314
27.9155586206
27.9155513689
27.9155447989
27.9155393266
27.9155359686
27.9155351322
27.9155360506
27.9155377301
27.915539333
27.9155405211
27.9155416851
27.9155446774
27.9155473738
27.9155520063
27.9155581919
27.915564774
27.9155701105
27.9155721685
27.9155710785
27.9155680739
27.9155650969
27.915563354
27.9155621849
27.9155615731
27.9162823603
27.9162819046
27.9162800435
27.9162778261
27.9162771781
27.9162804864
27.9162898034
27.9163049852
27.9163245057
27.9163459551
27.9163666074
27.9163842223
27.9163977855
27.9164070276
27.9164116035
27.9164127963
27.9164108701
27.91640544
27.916397935
27.9163895593
27.9163810617
27.9163729211
27.9163654436
27.9163588241
27.9163531759
27.9163485098
27.916344654
27.916341297
27.9163381072
27.9163347859
27.9163311007
27.9163269475
27.9163223682
27.9163174886
27.9163125186
27.91630764
27.9163028025
27.9162976787
27.916291985
27.9162858042
27.9162793564
27.9162730409
27.9162672367
27.9162622704
27.9162587958
27.916257179
27.9162569358
27.9162571917
27.9162573937
27.9162573948
27.9162574298
27.9162588674
27.9162613314
27.9162654063
27.9162714472
27.9162778309
27.9162828149
27.9162846811
27.916283889
27.9162821251
27.916281112
27.916281328
27.9162817925
27.9162822423
27.9169720289
27.916971601
27.9169695682
27.9169671775
27.9169662847
27.9169691309
27.9169779229
27.9169927146
27.9170121288
27.9170339339
27.9170553679
27.9170739539
27.9170885215
27.9170987031
27.9171040461
27.9171057385
27.9171043475
27.9170995216
27.9170924439
27.9170843679
27.9170760321
27.9170678688
27.9170601779
27.9170531971
27.9170470899
27.9170418907
27.9170374335
27.9170334089
27.9170294738
27.9170253061
27.9170206546
27.917015445
27.9170098177
27.9170040224
27.9169983758
27.9169931514
27.9169883889
27.9169838099
27.9169790181
27.9169739266
27.9169686422
27.9169634525
27.9169586614
27.9169544965
27.916951282
27.9169490317
27.9169477982
27.9169469862
27.9169459989
27.9169449831
27.9169440571
27.9169441493
27.916946338
27.9169495637
27.9169549487
27.9169605254
27.9169646752
27.9169662207
27.9169658622
27.9169654553
27.9169661986
27.9169680023
27.9169698905