/*--------------------------------*- C++ -*----------------------------------*\
  =========                 |
  \\      /  F ield         | OpenFOAM: The Open Source CFD Toolbox
   \\    /   O peration     | Website:  https://openfoam.org
    \\  /    A nd           | Version:  6
     \\/     M anipulation  |
\*---------------------------------------------------------------------------*/
FoamFile
{
    version     2.0;
    format      ascii;
    class       volScalarField;
    location    "3e-08";
    object      T;
}
// * * * * * * * * * * * * * * * * * * * * * * * * * * * * * * * * * * * * * //

dimensions      [0 0 0 1 0 0 0];

internalField   nonuniform List<scalar> 
12288
(
592.946401552
592.946394455
592.946384956
592.946373012
592.946358669
592.946341904
592.946322579
592.946300461
592.946275236
592.946246544
592.94621404
592.946177484
592.946136843
592.946092368
592.946044605
592.945994312
592.945942336
592.945889538
592.945836721
592.945784547
592.945733452
592.945683613
592.945635043
592.945587819
592.945542203
592.945498518
592.945456949
592.94541809
592.945384514
592.945355652
592.945330408
592.945309202
592.945293306
592.945283765
592.945280023
592.945283246
592.945294823
592.945314876
592.945343085
592.945379187
592.945422794
592.945473501
592.945530782
592.945593852
592.945661661
592.94573293
592.945806316
592.945880526
592.945954277
592.94602613
592.946094444
592.946157566
592.946214137
592.946263221
592.946304172
592.946336588
592.946360178
592.94637785
592.946390853
592.946399798
592.9464055
592.946408224
592.946408518
592.946406274
592.940259005
592.940260299
592.940255339
592.940243333
592.94022566
592.940203333
592.9401771
592.940147547
592.940115149
592.94008022
592.940042962
592.940003552
592.939962245
592.939919411
592.93987554
592.939831249
592.939787189
592.939743882
592.939701544
592.939659939
592.939618361
592.939575851
592.939531495
592.93948465
592.939434983
592.939382458
592.939327311
592.93926992
592.939210662
592.939149783
592.939087276
592.93902355
592.93895972
592.938897248
592.938837858
592.938783399
592.938735682
592.938696552
592.938667809
592.938651046
592.93864532
592.938652923
592.93867706
592.938716882
592.938772022
592.93884254
592.938927208
592.939023922
592.939130283
592.939243499
592.939360256
592.939477019
592.939590421
592.939697583
592.939796273
592.939885004
592.939963128
592.940030944
592.940088799
592.940135804
592.94017581
592.940208398
592.940233375
592.940250591
592.933323735
592.933346373
592.933354444
592.933351308
592.933338128
592.933315599
592.933285935
592.93325067
592.933211179
592.933168668
592.933124161
592.933078514
592.933032461
592.932986625
592.932941582
592.932897933
592.932856212
592.932816653
592.932778945
592.932742188
592.932705113
592.9326664
592.932624891
592.932579706
592.932530204
592.932475898
592.932416459
592.93235169
592.932281287
592.932204919
592.932122422
592.932033947
592.931940068
592.931841976
592.9317415
592.931640813
592.931542161
592.931447745
592.931359647
592.931280186
592.931212881
592.93116227
592.931133266
592.931121655
592.931130472
592.931166296
592.931228419
592.931314716
592.931424062
592.931553742
592.931699273
592.931855674
592.932017958
592.932181268
592.932341321
592.932494538
592.932638255
592.932770671
592.932890585
592.932997309
592.933090555
592.933169386
592.933233756
592.933285656
592.929432301
592.929482942
592.929514902
592.92952777
592.9295264
592.929514386
592.9294922
592.929462567
592.929427105
592.929387372
592.929344843
592.929300734
592.929255792
592.929210288
592.929164517
592.929118973
592.929074216
592.929030624
592.928988249
592.928946849
592.928906014
592.928865309
592.928824313
592.928782586
592.928739597
592.928694678
592.928647047
592.928595873
592.928540347
592.928479733
592.928413396
592.928340919
592.928262224
592.928177592
592.928087675
592.927993641
592.927896609
592.927797485
592.92769719
592.927597484
592.927501011
592.927411111
592.927331851
592.927268366
592.927226834
592.92720933
592.927211121
592.927238243
592.927296653
592.92738149
592.927491273
592.927622245
592.92777016
592.927930538
592.928098935
592.928270795
592.928441983
592.928608769
592.928767808
592.928916339
592.929052013
592.929172858
592.929277223
592.929363883
592.926567559
592.92664439
592.926703092
592.926744598
592.926768707
592.926777822
592.926776467
592.926768219
592.926753392
592.926732384
592.926705637
592.92667402
592.926637052
592.926594025
592.926545131
592.926491209
592.926433671
592.926374268
592.926314714
592.926256476
592.9262007
592.926148203
592.926099439
592.926054419
592.926012681
592.925973368
592.925935395
592.925897623
592.925858983
592.925818508
592.925775286
592.925728604
592.925678056
592.92562338
592.925564297
592.925500626
592.925433222
592.925361926
592.925285678
592.925204899
592.925120249
592.925033644
592.924948363
592.924868318
592.924796722
592.924737179
592.924696694
592.92467989
592.924682196
592.924703937
592.924751036
592.924824628
592.924916651
592.925027895
592.925155707
592.925297569
592.92544998
592.925609193
592.925770783
592.925930487
592.926084181
592.926227971
592.926358213
592.926471994
592.923060198
592.923138745
592.923201993
592.923251858
592.923289152
592.923314799
592.923331524
592.923342992
592.923351198
592.9233561
592.923351337
592.923342257
592.923324092
592.923293621
592.923251183
592.923197522
592.923134629
592.923065668
592.922993894
592.922922179
592.922852786
592.922787325
592.922726674
592.922670961
592.922619729
592.922572213
592.922527579
592.92248509
592.922444151
592.922404149
592.9223645
592.922325026
592.922285567
592.922245963
592.922206438
592.922167142
592.92212605
592.922082582
592.922041543
592.921998885
592.921952383
592.921903537
592.921853813
592.921804257
592.92175586
592.92171016
592.921672024
592.921646941
592.921636011
592.921636346
592.92165092
592.921681987
592.92173039
592.92180164
592.921876401
592.921967472
592.922074583
592.922194419
592.922324492
592.92246065
592.922598045
592.922731152
592.922854792
592.922965226
592.915655848
592.915733423
592.915799382
592.915855347
592.915903457
592.915945993
592.915984829
592.916020436
592.916052929
592.916082068
592.916104191
592.916116972
592.916120598
592.916109725
592.916081019
592.916036412
592.915979237
592.915913188
592.915842282
592.915770259
592.915700021
592.915633282
592.915570549
592.915511587
592.915456006
592.9154036
592.915354294
592.915307992
592.915264591
592.915223895
592.915185628
592.915149634
592.915115621
592.915083502
592.915053473
592.915025696
592.914999859
592.914975974
592.914952824
592.914933588
592.914914056
592.914895879
592.914877723
592.914858059
592.914836494
592.914812204
592.914786372
592.914760512
592.914738145
592.91472425
592.914718674
592.914718946
592.914726822
592.914744388
592.914776048
592.914817171
592.914869861
592.914940424
592.91502852
592.915130432
592.915241186
592.915354452
592.915464341
592.91556587
592.908560418
592.908616818
592.908663473
592.908702105
592.908735958
592.908768857
592.908803177
592.908838474
592.908873346
592.908907044
592.908937855
592.908962263
592.908975079
592.908976762
592.908968115
592.908945369
592.908911699
592.908870827
592.908826304
592.908780923
592.908736162
592.908692086
592.908647874
592.908602704
592.908556364
592.908509301
592.908462308
592.908416234
592.908372038
592.908330638
592.908292741
592.908258011
592.908226171
592.908197221
592.908171081
592.908147914
592.908128262
592.908113129
592.908101866
592.908094909
592.908096466
592.908101969
592.908111753
592.908123984
592.908137263
592.908149318
592.908158549
592.908162765
592.908161101
592.908156172
592.908149597
592.908140382
592.90812873
592.908115732
592.908105323
592.908107007
592.908106777
592.908120103
592.908152279
592.908202352
592.908267832
592.908342831
592.908420336
592.908494256
592.899053555
592.899112803
592.899162968
592.899203761
592.899237233
592.899266706
592.899294779
592.899321896
592.899347166
592.899368242
592.899382291
592.899392355
592.899392578
592.89938548
592.899370737
592.899349766
592.899324912
592.899298767
592.899273428
592.899249803
592.899227391
592.899204756
592.899180326
592.899153028
592.899122483
592.899088899
592.899052878
592.899015377
592.898978078
592.8989433
592.898911728
592.898882958
592.898858213
592.898838246
592.898823205
592.89881295
592.898807308
592.898806213
592.89880892
592.898815037
592.898827036
592.898846937
592.898871255
592.898899379
592.898929833
592.898961101
592.898990766
592.899014737
592.899027887
592.899029871
592.899020126
592.898995992
592.898960269
592.898918061
592.898874888
592.89883689
592.898802227
592.89877777
592.898769918
592.898778409
592.898809081
592.898858742
592.898920785
592.898987902
592.88580375
592.885892043
592.885976069
592.886051521
592.886116512
592.886171312
592.886217136
592.886254405
592.886281559
592.886295374
592.886297946
592.886289255
592.886267824
592.886235997
592.886197446
592.88615587
592.886114584
592.886076337
592.886042898
592.886014742
592.885991025
592.88597009
592.885950269
592.885930346
592.885909339
592.885886353
592.885860891
592.885833101
592.885804128
592.885775315
592.885747079
592.885720452
592.885698128
592.885682184
592.885674206
592.885673219
592.88567825
592.885689872
592.885707165
592.885728834
592.885753902
592.885783567
592.885819945
592.885860648
592.885904821
592.885950044
592.88599446
592.886033342
592.886060362
592.886071169
592.886061707
592.886026402
592.885968641
592.885897692
592.88582121
592.885744577
592.885675714
592.885617538
592.8855796
592.885559472
592.885560777
592.885587699
592.885642785
592.885717833
592.868393218
592.868511684
592.868635716
592.86875666
592.868867466
592.86896366
592.869043834
592.869107671
592.869150978
592.8691679
592.869167391
592.869150888
592.869114081
592.869059877
592.868993337
592.868919563
592.868843196
592.868768171
592.868697647
592.868633795
592.868577588
592.868528862
592.868486886
592.868450739
592.868419217
592.868390447
592.868363661
592.868335629
592.868305172
592.86827232
592.86823705
592.868200574
592.868165596
592.868134463
592.86810999
592.868094711
592.868088122
592.868089252
592.868099664
592.868119235
592.868146278
592.868180202
592.868221739
592.868272583
592.868332093
592.868399013
592.868470666
592.868542047
592.868607043
592.868656646
592.868680995
592.868678355
592.868646163
592.868586901
592.868512437
592.86843104
592.868351481
592.868281286
592.868224303
592.868183963
592.868165976
592.868173765
592.86821434
592.86829047
592.84733456
592.847447756
592.8475802
592.847720763
592.847858629
592.847984543
592.848092981
592.848182019
592.848247056
592.848280454
592.848289957
592.848282634
592.848253345
592.848201293
592.84812975
592.84804328
592.847946768
592.847845128
592.847743135
592.847644967
592.847553845
592.847471983
592.847400867
592.847341192
592.847292378
592.847252536
592.847219146
592.847187899
592.847153331
592.847116403
592.847075208
592.847028996
592.846978883
592.846926577
592.846874922
592.846827195
592.846785939
592.846753601
592.846733033
592.846724783
592.846729636
592.846750071
592.846786183
592.846838046
592.846908691
592.846999562
592.84710624
592.847223273
592.847343074
592.847455416
592.847549197
592.847612823
592.847638928
592.847632907
592.847599448
592.847542591
592.847473903
592.847405869
592.847333529
592.84726844
592.847220446
592.847198606
592.847206261
592.84725118
592.825243158
592.825310239
592.825410818
592.825534616
592.825670109
592.825805081
592.825929537
592.826038231
592.826127557
592.82619113
592.826227839
592.826244592
592.826244455
592.826223364
592.826178995
592.826113985
592.826031955
592.825937766
592.825836713
592.825734022
592.825634344
592.82554181
592.825459988
592.825391207
592.825335746
592.825292176
592.825258652
592.825232776
592.825206818
592.825181314
592.825152519
592.825118688
592.825077631
592.825029018
592.824973681
592.824913522
592.824851721
592.82479225
592.824738549
592.824694958
592.824668011
592.824659768
592.824671189
592.824706929
592.824770837
592.824865193
592.824987274
592.825129847
592.825284152
592.825438468
592.825578755
592.825691639
592.825767016
592.8257973
592.825792262
592.825758969
592.825701618
592.825622182
592.825524932
592.825426797
592.825335914
592.82526296
592.825223458
592.825216575
592.805911455
592.805935901
592.806000582
592.806099671
592.806223006
592.806357932
592.806491555
592.806615174
592.806724207
592.806813669
592.806879371
592.806923018
592.806946087
592.806951364
592.806938856
592.806902612
592.806845424
592.806771973
592.806687274
592.806596776
592.806505403
592.806417588
592.806337005
592.80626625
592.806206553
592.806158131
592.806121339
592.806097709
592.806082136
592.806073235
592.80606822
592.80606407
592.806057853
592.806046547
592.806027836
592.806000211
592.805962913
592.805918458
592.805869738
592.805820505
592.805776383
592.805745311
592.805734156
592.805745455
592.805783892
592.805854149
592.805955181
592.806081592
592.80622432
592.806370081
592.806502396
592.806606917
592.806675294
592.80670182
592.806698305
592.806667658
592.806597307
592.806496564
592.806379192
592.806259326
592.806143488
592.806039373
592.805960381
592.805919139
592.791712814
592.791753613
592.791825553
592.79192446
592.792045564
592.792179121
592.79231387
592.792440619
592.792552766
592.792646058
592.792716947
592.792762878
592.792783546
592.792785591
592.792771162
592.792734386
592.79267746
592.792604184
592.792519335
592.792428298
592.792335931
592.792245175
592.79215745
592.79207455
592.791998828
592.791931476
592.791874057
592.791828289
592.791796527
592.791778909
592.791774387
592.791780705
592.791796381
592.791818045
592.791841424
592.791862527
592.791878111
592.791885537
592.79188257
592.791872294
592.791857692
592.791841962
592.791833931
592.791838476
592.791860149
592.791903873
592.791968676
592.792051626
592.792145579
592.792238696
592.792316312
592.792370789
592.792398671
592.792399923
592.792377861
592.792324685
592.792242085
592.792141799
592.792036576
592.791935728
592.791846078
592.7917717
592.791719768
592.79170067
592.782480634
592.782575284
592.782678663
592.78279141
592.782912298
592.783036941
592.783160231
592.783275672
592.783376434
592.783457365
592.783513639
592.783539352
592.783542041
592.783524542
592.783482971
592.7834211
592.783341705
592.783248741
592.783147668
592.783043658
592.782940043
592.782837925
592.782736951
592.782636819
592.782538026
592.782440737
592.782345139
592.782255547
592.782178289
592.782116081
592.782070183
592.782043931
592.782035703
592.782044522
592.782070257
592.782109237
592.782158774
592.782215103
592.782273495
592.782329423
592.782380124
592.782424604
592.782463611
592.782499256
592.782535668
592.782575029
592.782615862
592.782655705
592.782690203
592.782712237
592.782717288
592.782714301
592.782700943
592.782670136
592.78262047
592.782553337
592.782479598
592.782411439
592.782355612
592.782317944
592.782305803
592.782317014
592.782348917
592.78240358
592.776711408
592.776822705
592.776930187
592.777037745
592.777147289
592.777259808
592.777374189
592.777485855
592.777587963
592.777673202
592.777733402
592.777761422
592.777765119
592.777746364
592.777699767
592.777629251
592.777539847
592.777437638
592.777329447
592.777221018
592.777115529
592.777013498
592.776913114
592.77681193
592.776708415
592.776601731
592.776491982
592.776381732
592.776274861
592.776173521
592.77608798
592.776015352
592.77596046
592.775929879
592.775921933
592.775934804
592.775972026
592.776032558
592.776111977
592.776203636
592.776299539
592.776393053
592.776479116
592.776554671
592.776618812
592.776671329
592.776710317
592.776732679
592.776736771
592.776723168
592.776694905
592.776658874
592.776618795
592.776569079
592.77650816
592.776444354
592.776388201
592.776347816
592.77632945
592.776333635
592.776363446
592.776422903
592.77650562
592.776603924
592.773535517
592.773620789
592.773706499
592.773796668
592.773894178
592.774001405
592.774117889
592.774239456
592.774358933
592.77446613
592.774550495
592.774606215
592.774634036
592.774638091
592.774614998
592.774560437
592.774481357
592.774386255
592.774282856
592.774178009
592.774076238
592.77397898
592.773885239
592.773792622
592.7736985
592.773601024
592.773499337
592.773395147
592.773291494
592.773190985
592.773096428
592.773011186
592.772940139
592.772888658
592.772863227
592.772860572
592.772881264
592.772930438
592.773003321
592.77309297
592.773191082
592.773290578
592.773385757
592.773470999
592.77354272
592.773599365
592.773639275
592.773659231
592.773661384
592.773645888
592.773612585
592.773568527
592.773518195
592.773463721
592.773406757
592.773353703
592.773310657
592.77327772
592.773258714
592.773254273
592.773268586
592.773309679
592.773373714
592.773451543
592.771294105
592.771333174
592.771394404
592.771475487
592.771575264
592.771693184
592.771826632
592.771970982
592.772119896
592.772263424
592.772389344
592.772490003
592.772562436
592.772600632
592.772608458
592.772583877
592.77252281
592.772436905
592.772337838
592.772236083
592.772139719
592.772053259
592.771977608
592.771911081
592.771850747
592.77179366
592.771738152
592.771684368
592.771632113
592.771578801
592.771521319
592.771460995
592.771401877
592.771345774
592.771296409
592.771258647
592.771234123
592.771221851
592.771223612
592.771242677
592.771277664
592.77132694
592.771388841
592.771460216
592.771537415
592.77161654
592.771693185
592.771761566
592.771814611
592.771845598
592.771855356
592.771845817
592.771818611
592.771779987
592.77173344
592.771681107
592.771625718
592.771562502
592.771492043
592.771420588
592.771355834
592.771307285
592.771281236
592.771277267
592.770414957
592.770457486
592.770538359
592.770643657
592.770764775
592.770897034
592.771036911
592.77118146
592.771327738
592.771470103
592.771599665
592.771709345
592.771794579
592.771846382
592.771863752
592.771849746
592.771797937
592.771713334
592.771608821
592.771497101
592.771388805
592.771291
592.771206848
592.771136553
592.771078891
592.771033028
592.771000172
592.770977747
592.770960392
592.770945597
592.770930848
592.770913213
592.770891677
592.770864196
592.770829313
592.770788411
592.770745887
592.770705141
592.770668427
592.770639672
592.770623551
592.770622568
592.770640097
592.770678519
592.77073854
592.770818955
592.770913107
592.77101087
592.77110109
592.771174607
592.771225551
592.771249667
592.771251936
592.771235748
592.77120145
592.771147596
592.771073002
592.770976167
592.770861413
592.770738092
592.77061797
592.770514332
592.770440686
592.770409189
592.770918589
592.771008525
592.771128972
592.771260377
592.771393341
592.771522412
592.771645636
592.771763481
592.771876792
592.771984798
592.772084469
592.772172088
592.772242684
592.77228672
592.772301487
592.772289554
592.77224411
592.772166441
592.772065815
592.771953122
592.771838697
592.771730342
592.771632703
592.771548274
592.77147925
592.7714281
592.771395505
592.771375867
592.771366171
592.771364008
592.771365715
592.771367203
592.771365093
592.77135526
592.771334867
592.771302837
592.771260706
592.771213186
592.771164903
592.771119987
592.771082826
592.771059481
592.771052861
592.771065084
592.771103804
592.771173449
592.771268593
592.771377581
592.771487479
592.771587175
592.771668614
592.771725288
592.771749729
592.771748312
592.771724799
592.771665115
592.771566904
592.771437581
592.771292846
592.771148734
592.771020864
592.770924322
592.770875471
592.770873586
592.77274892
592.772856361
592.772974482
592.77309025
592.77320449
592.773313146
592.773415747
592.773514001
592.773608732
592.77369951
592.773785571
592.773864917
592.773931774
592.773977896
592.773998159
592.773996268
592.773967893
592.773909956
592.773829914
592.773735568
592.773634539
592.773533375
592.773437072
592.773350295
592.77327838
592.773225135
592.773189188
592.773167154
592.773158883
592.773159931
592.773165522
592.773171525
592.773173954
592.773168735
592.773151957
592.773122528
592.773080098
592.773027069
592.772967587
592.77290709
592.772851326
592.772806528
592.772781343
592.772777298
592.772798166
592.772853554
592.772942887
592.773056879
592.773183198
592.773308015
592.773417275
592.773498981
592.773544193
592.773555875
592.773531602
592.773456402
592.773328765
592.77316806
592.773002979
592.77285587
592.772741398
592.772670849
592.77265157
592.772676647
592.775995904
592.776047608
592.776089388
592.776143649
592.776217666
592.776308942
592.776414711
592.776531525
592.776653881
592.77677481
592.776888075
592.776988307
592.777069289
592.777125276
592.777151408
592.777153349
592.777132368
592.777086085
592.777022539
592.776948152
592.776867771
592.77678499
592.776703112
592.776626581
592.776560696
592.776508577
592.776468824
592.776441196
592.77642742
592.776423814
592.776424468
592.776425646
592.776424326
592.776415813
592.776396283
592.776364605
592.77631977
592.776262314
592.776194894
592.776122811
592.77605323
592.775993793
592.775954842
592.775942723
592.77595733
592.776001924
592.776079976
592.776188187
592.77631768
592.776453062
592.776575038
592.776668462
592.776725672
592.77674418
592.776716277
592.776630554
592.776496554
592.776343419
592.776200877
592.776088021
592.776006808
592.775955581
592.775940829
592.775957627
592.780602463
592.780584538
592.780565166
592.780574668
592.780625429
592.780717593
592.780842841
592.780990527
592.781149165
592.781305733
592.781447663
592.781564993
592.781652236
592.781705216
592.781722869
592.781710912
592.781673162
592.78161422
592.781543589
592.781468304
592.781392262
592.781317516
592.781244909
592.781176474
592.781115327
592.781062967
592.781019478
592.780986361
592.780966282
592.78095763
592.780955658
592.780956085
592.78095565
592.780949053
592.780931226
592.780899196
592.780851436
592.780788884
592.780714186
592.780631462
592.780548
592.780472762
592.780416787
592.780392552
592.780399943
592.780437535
592.780508423
592.780610726
592.780737693
592.780874759
592.781002597
592.781106042
592.78117645
592.781204114
592.781182305
592.781109813
592.781005693
592.780900883
592.780814446
592.780753162
592.780704691
592.780667172
592.780637632
592.780618136
592.786257592
592.786217371
592.786194692
592.786205662
592.786259696
592.786360491
592.786496944
592.786655429
592.786821989
592.786982358
592.78712303
592.787233879
592.787310793
592.787348348
592.787350458
592.787320843
592.787260527
592.787181284
592.78709348
592.787006607
592.786925609
592.786851677
592.786783859
592.786721457
592.786664434
592.786612902
592.786567856
592.786531063
592.786505046
592.786490982
592.786485942
592.786485059
592.786484407
592.78647862
592.786461089
592.786427254
592.78637547
592.786307698
592.786227534
592.786138416
592.786046761
592.785961749
592.785894028
592.785858794
592.785857907
592.785890266
592.785958619
592.786056488
592.786175614
592.786303879
592.786427227
592.786533424
592.786611435
592.786646834
592.786639928
592.786599951
592.786544724
592.786499547
592.786469096
592.786448297
592.786424976
592.786393483
592.786351797
592.786304452
592.792602682
592.792585579
592.79259018
592.792623793
592.79269278
592.792796874
592.792928448
592.793074817
592.793223103
592.79336209
592.793481803
592.793575356
592.793638777
592.793666796
592.793662262
592.793627101
592.793561045
592.793474622
592.793379691
592.793287807
592.793205478
592.793134195
592.793072508
592.793017751
592.792967517
592.792920867
592.792878847
592.792842818
592.792814362
592.79279589
592.792786153
592.79278085
592.792775334
592.792764338
592.792741854
592.79270341
592.792647396
592.792575993
592.792493829
592.792404286
592.792312445
592.79222679
592.79215679
592.792116007
592.792109464
592.792138415
592.792203433
592.792293774
592.792397727
592.792505823
592.792611898
592.792707607
592.792779538
592.792819033
592.792828917
592.792820168
592.792807497
592.792803585
592.792803528
592.792799077
592.792782643
592.79274656
592.792695378
592.792642475
592.799356387
592.799363623
592.799392056
592.799442735
592.799514585
592.799610907
592.799728743
592.799858176
592.799987859
592.800108586
592.800213898
592.800299491
592.800360528
592.800389796
592.800392193
592.800368205
592.800312496
592.800233854
592.800144811
592.800057253
592.799978845
592.799912247
592.799856387
592.799808339
592.799764942
592.799724947
592.799688965
592.799657641
592.799631291
592.799611584
592.799598165
592.799587756
592.799575872
592.79955772
592.799528934
592.799486348
592.799428496
592.799356881
592.799276163
592.799189929
592.79910287
592.799022258
592.798955439
592.798913548
592.798903273
592.798927727
592.798985389
592.799062838
592.79914635
592.799228325
592.799309267
592.799386191
592.799443558
592.799482634
592.799506521
592.799520748
592.799533476
592.799547127
592.799554216
592.79954625
592.799517004
592.799468993
592.799416333
592.799374344
592.80632635
592.806343162
592.806377238
592.806421904
592.806479715
592.806559927
592.806664335
592.80678589
592.80691323
592.807035029
592.807144253
592.807236655
592.807306403
592.807346515
592.80736074
592.807351362
592.807311397
592.807245403
592.807166661
592.807086367
592.807012472
592.806948732
592.806895175
592.806849673
592.806809842
592.806774659
592.806744251
592.806718292
592.806695849
592.806677171
592.806661893
592.806647618
592.806630719
592.806607429
592.806575
592.806531579
592.806475715
592.806407659
592.806331264
592.806250216
592.806169329
592.806094748
592.806031867
592.805989144
592.805974769
592.805992422
592.806038421
592.806099118
592.80616074
592.806217401
592.806272848
592.80633112
592.806373999
592.806412114
592.806446466
592.806477761
592.80650538
592.806522914
592.806525434
592.806505071
592.806459769
592.806406822
592.806360896
592.806332358
592.813332423
592.81334592
592.813367584
592.813391079
592.813426268
592.81348793
592.813582585
592.813705439
592.81384379
592.813982015
592.81410856
592.814216548
592.814299736
592.814352849
592.814376551
592.814376976
592.814349218
592.814293047
592.814222187
592.814147082
592.814075288
592.814011207
592.813956113
592.813909226
592.813869301
592.813835815
592.813808368
592.813785607
592.81376569
592.813747677
592.813730736
592.813713065
592.81369215
592.813665545
592.813631882
592.813590278
592.813539196
592.813477509
592.813407688
592.813333247
592.813258632
592.813189265
592.813129361
592.813084894
592.813065419
592.813074579
592.813106732
592.813149683
592.813191201
592.813226918
592.813261032
592.813304817
592.813336942
592.813375534
592.813418003
592.813461696
592.813499219
592.813517086
592.813512601
592.813482478
592.813434488
592.813389223
592.813353955
592.813334773
592.82018316
592.820188222
592.820191855
592.820193047
592.820206997
592.820252363
592.820339759
592.820466173
592.820617981
592.82077598
592.820923092
592.821048075
592.821144086
592.821207567
592.821237662
592.821242941
592.821221609
592.821171033
592.821104474
592.821031939
592.820960375
592.820894343
592.820836023
592.820785878
592.820743736
592.820709422
592.820681999
592.82065935
592.820639122
592.820619609
592.820599488
592.820577357
592.820551805
592.820521726
592.820486952
592.820447425
592.820401725
592.820347649
592.820285891
592.820219286
592.820151506
592.820087333
592.820030432
592.819984811
592.819960639
592.819961027
592.819979278
592.820005636
592.820030119
592.820049608
592.820067668
592.820099938
592.820124679
592.820163518
592.820211796
592.820263311
592.820306459
592.820324459
592.820315867
592.820285353
592.820247756
592.820218509
592.820196798
592.820184803
592.82668891
592.826687063
592.826676469
592.826662781
592.826662038
592.826694912
592.826775999
592.826903355
592.827063651
592.827236319
592.827400164
592.82753933
592.827645964
592.827717565
592.827752547
592.82776071
592.827742848
592.827695808
592.827631843
592.827560898
592.827489445
592.827421837
592.827360684
592.82730731
592.827262303
592.827225635
592.827195976
592.827170845
592.827147654
592.827124225
592.827098864
592.827070493
592.827038715
592.827003669
592.826966272
592.826927296
592.826885778
592.826839029
592.826785917
592.826728137
592.826668372
592.826610639
592.826558324
592.826514455
592.826486707
592.826479249
592.826485887
592.82649763
592.826508038
592.826514991
592.826521472
592.826542012
592.826561982
592.82659887
592.826649401
592.826703646
592.826747693
592.826764925
592.826756426
592.826733453
592.826712058
592.826700945
592.826693985
592.826689845
592.832701906
592.832697087
592.832679449
592.832658671
592.83265088
592.832675774
592.832751129
592.832876432
592.833039201
592.833219394
592.833393974
592.833543665
592.83365928
592.833738333
592.8337785
592.833789794
592.833775375
592.833732113
592.83367086
592.833601811
592.833531194
592.833462981
592.833399863
592.833343677
592.833295511
592.833255445
592.833222006
592.833192635
592.833164634
592.833135522
592.833103356
592.833067336
592.833027963
592.832986488
592.832944792
592.832904449
592.832865169
592.832824344
592.832779429
592.832730729
592.832679918
592.83263015
592.832584424
592.83254507
592.832516843
592.832502961
592.832499932
592.832500132
592.832499134
592.832496486
592.83249387
592.832502069
592.832519694
592.832551731
592.832600396
592.832652159
592.83269257
592.832707954
592.832702181
592.832689848
592.832684832
592.83268978
592.832696109
592.832700834
592.838452417
592.83844814
592.838429843
592.838408323
592.838399223
592.838420792
592.838491862
592.838613734
592.838775174
592.838957682
592.839138232
592.839295761
592.839419646
592.83950668
592.839553626
592.839569225
592.83955939
592.839521473
592.839464045
592.839397661
592.839328513
592.839260192
592.83919532
592.839136076
592.839083974
592.839039322
592.839000738
592.838965692
592.838931378
592.838895126
592.838854847
592.838809977
592.838761811
592.838712618
592.838665142
592.838621703
592.838582751
592.838546134
592.838508503
592.838468788
592.838427658
592.838387328
592.838350154
592.838317697
592.838292027
592.83827312
592.838261788
592.838253322
592.838242877
592.838231907
592.838221927
592.838219608
592.83823429
592.838259187
592.838301844
592.838346146
592.838379096
592.838391676
592.838389797
592.838388682
592.838397852
592.838415655