/*--------------------------------*- C++ -*----------------------------------*\
  =========                 |
  \\      /  F ield         | OpenFOAM: The Open Source CFD Toolbox
   \\    /   O peration     | Website:  https://openfoam.org
    \\  /    A nd           | Version:  6
     \\/     M anipulation  |
\*---------------------------------------------------------------------------*/
FoamFile
{
    version     2.0;
    format      ascii;
    class       volVectorField;
    location    "3e-08";
    object      U;
}
// * * * * * * * * * * * * * * * * * * * * * * * * * * * * * * * * * * * * * //

dimensions      [0 1 -1 0 0 0 0];

internalField   nonuniform List<vector> 
12288
(
(-87.6785712306 0 0.312788307914)
(-87.6786556668 0 0.312855924472)
(-87.6787419773 0 0.312926057688)
(-87.6788280356 0 0.312999225927)
(-87.6789121853 0 0.313075846478)
(-87.6789931713 0 0.313156522032)
(-87.6790702013 0 0.313241928245)
(-87.6791429325 0 0.3133326944)
(-87.6792114541 0 0.313429331969)
(-87.6792762529 0 0.313532128041)
(-87.6793380872 0 0.313641068648)
(-87.6793978191 0 0.313755790294)
(-87.6794561752 0 0.313875583996)
(-87.6795136397 0 0.31399943549)
(-87.6795704931 0 0.31412616885)
(-87.6796270392 0 0.314254471587)
(-87.6796836114 0 0.314382863028)
(-87.6797404661 0 0.314509664521)
(-87.6797976616 0 0.314633051438)
(-87.6798549263 0 0.314751271852)
(-87.6799116861 0 0.314862808665)
(-87.6799673231 0 0.314966296412)
(-87.6800217251 0 0.31506024137)
(-87.6800751582 0 0.31514288817)
(-87.6801273005 0 0.315212286963)
(-87.6801768553 0 0.315266908311)
(-87.6802240745 0 0.31530546746)
(-87.6802705018 0 0.315325426373)
(-87.6803138819 0 0.31532033115)
(-87.6803452755 0 0.315286009769)
(-87.6803736453 0 0.315225945422)
(-87.6803959583 0 0.315141661698)
(-87.6804090641 0 0.315036642066)
(-87.6804109589 0 0.314914965746)
(-87.6804011578 0 0.314781007641)
(-87.6803787648 0 0.314638616876)
(-87.6803417433 0 0.314490724154)
(-87.680288691 0 0.314339751789)
(-87.6802199107 0 0.31418748556)
(-87.6801351889 0 0.314035106605)
(-87.6800345218 0 0.313883099889)
(-87.6799186135 0 0.313731396305)
(-87.679789071 0 0.313580275179)
(-87.6796486334 0 0.31343072671)
(-87.6795008438 0 0.313284188342)
(-87.6793495653 0 0.31314264289)
(-87.6791984973 0 0.313008279594)
(-87.6790507251 0 0.312883291086)
(-87.6789089999 0 0.312769519472)
(-87.6787759194 0 0.312668586619)
(-87.6786541011 0 0.312581981898)
(-87.6785459408 0 0.312510913014)
(-87.6784531491 0 0.312456161113)
(-87.6783765774 0 0.312418169531)
(-87.6783168325 0 0.31239677741)
(-87.6782744746 0 0.312391063138)
(-87.6782491581 0 0.31240030311)
(-87.6782407379 0 0.312422148389)
(-87.6782467944 0 0.312455308255)
(-87.6782679142 0 0.312497798664)
(-87.6783043002 0 0.312547086836)
(-87.6783549518 0 0.312601843546)
(-87.6784181369 0 0.312660786438)
(-87.6784911726 0 0.312723108113)
(-87.6800249784 0 0.329951733412)
(-87.6800805947 0 0.330011564629)
(-87.6801374339 0 0.330077563391)
(-87.6801937187 0 0.33014890674)
(-87.680247911 0 0.330225550794)
(-87.6802977739 0 0.33030774483)
(-87.6803425642 0 0.330395306932)
(-87.6803822853 0 0.33048799859)
(-87.6804175746 0 0.330585421101)
(-87.6804496288 0 0.330687047576)
(-87.680480115 0 0.330792192345)
(-87.6805108587 0 0.33090001006)
(-87.6805434905 0 0.331009506058)
(-87.6805791877 0 0.331119620935)
(-87.680618564 0 0.331229348946)
(-87.6806619225 0 0.331337793336)
(-87.6807096197 0 0.331444135283)
(-87.6807619463 0 0.331547601623)
(-87.6808187254 0 0.331647484101)
(-87.6808791186 0 0.33174317501)
(-87.6809418394 0 0.331834149719)
(-87.6810056133 0 0.331919874547)
(-87.6810699894 0 0.331999629831)
(-87.6811354614 0 0.332072489042)
(-87.6812030397 0 0.332137184998)
(-87.6812733233 0 0.332192222842)
(-87.6813468696 0 0.332235688024)
(-87.6814242639 0 0.332265005119)
(-87.6815056199 0 0.332276231142)
(-87.6815897424 0 0.332265881253)
(-87.6816757668 0 0.332235076154)
(-87.6817624893 0 0.332186245961)
(-87.6818474065 0 0.332122493709)
(-87.6819282894 0 0.33204788325)
(-87.6820030965 0 0.331966053329)
(-87.682070111 0 0.331880244212)
(-87.6821269704 0 0.331792630689)
(-87.6821705549 0 0.331704230322)
(-87.6821970448 0 0.331615062372)
(-87.6822036984 0 0.331524437719)
(-87.6821895402 0 0.331430840809)
(-87.6821513217 0 0.331332888627)
(-87.6820862376 0 0.331229446242)
(-87.6819962665 0 0.331119632781)
(-87.6818844289 0 0.331003083628)
(-87.6817527233 0 0.330880689318)
(-87.6816041351 0 0.330754590141)
(-87.6814426714 0 0.330626730127)
(-87.6812720161 0 0.33049970077)
(-87.6810961991 0 0.330376111064)
(-87.6809197187 0 0.330258495424)
(-87.6807471589 0 0.330149318004)
(-87.6805826933 0 0.330050938909)
(-87.6804299249 0 0.32996546594)
(-87.6802920261 0 0.329894643625)
(-87.680171991 0 0.32983956812)
(-87.6800723698 0 0.329800552696)
(-87.6799948945 0 0.329777197418)
(-87.6799407015 0 0.329768162333)
(-87.6799093043 0 0.329772733536)
(-87.6799008824 0 0.329788753225)
(-87.6799111307 0 0.329816869719)
(-87.6799373504 0 0.32985375273)
(-87.6799756888 0 0.329898951508)
(-87.6802574429 0 0.360860424848)
(-87.6802659744 0 0.360893841064)
(-87.6802838992 0 0.36093990424)
(-87.6803046113 0 0.360997759923)
(-87.6803234122 0 0.361065717728)
(-87.6803408095 0 0.36114217914)
(-87.6803571923 0 0.361226459956)
(-87.6803725519 0 0.361317340942)
(-87.6803880902 0 0.361413172004)
(-87.6804054982 0 0.361512139166)
(-87.680426822 0 0.361612408906)
(-87.6804541107 0 0.361712237892)
(-87.6804888934 0 0.361809971667)
(-87.6805316229 0 0.361904217257)
(-87.6805818228 0 0.361993983562)
(-87.6806386687 0 0.362078660124)
(-87.6807012147 0 0.362158016159)
(-87.6807682169 0 0.362232201562)
(-87.6808379046 0 0.362301659882)
(-87.6809081046 0 0.362366952404)
(-87.6809768207 0 0.36242853211)
(-87.6810428589 0 0.362486608397)
(-87.6811062046 0 0.36254108006)
(-87.681167823 0 0.362591624522)
(-87.6812293822 0 0.362637498676)
(-87.6812927449 0 0.362677541735)
(-87.681359595 0 0.36271034097)
(-87.6814313666 0 0.362734429501)
(-87.6815094882 0 0.362747878433)
(-87.6815943292 0 0.362748781569)
(-87.6816849896 0 0.362737247585)
(-87.6817803064 0 0.362715776624)
(-87.681879442 0 0.362688994283)
(-87.6819818308 0 0.362662180591)
(-87.6820863629 0 0.362639102688)
(-87.68219165 0 0.362622692273)
(-87.6822957943 0 0.362614251833)
(-87.6823965358 0 0.362613857125)
(-87.6824910074 0 0.362619756617)
(-87.6825754047 0 0.362629346706)
(-87.6826440459 0 0.362638521442)
(-87.6826902475 0 0.362642883548)
(-87.6827125623 0 0.362637515689)
(-87.6827128812 0 0.362617682729)
(-87.6826918467 0 0.362579828092)
(-87.6826424371 0 0.362524451082)
(-87.68256462 0 0.362451010233)
(-87.6824618524 0 0.362358206726)
(-87.6823337165 0 0.362248197864)
(-87.6821822123 0 0.362123440164)
(-87.6820113258 0 0.361987289801)
(-87.6818255387 0 0.36184387623)
(-87.6816296099 0 0.361697559616)
(-87.6814288106 0 0.361552964138)
(-87.6812290808 0 0.361414584054)
(-87.6810368384 0 0.36128647288)
(-87.680858388 0 0.361171764101)
(-87.6806993916 0 0.361072402536)
(-87.6805638392 0 0.360989783702)
(-87.6804539689 0 0.360925076097)
(-87.6803710885 0 0.360879157688)
(-87.6803145666 0 0.360851294875)
(-87.6802799983 0 0.360838778309)
(-87.6802616327 0 0.360841589643)
(-87.6780327817 0 0.389690784528)
(-87.6779545003 0 0.389676990572)
(-87.6778890283 0 0.389681680698)
(-87.6778380999 0 0.389705368105)
(-87.6777948221 0 0.389745340265)
(-87.6777539271 0 0.389797731812)
(-87.6777189487 0 0.389860698232)
(-87.6776936428 0 0.389933286397)
(-87.6776800172 0 0.390013693062)
(-87.6776806599 0 0.390099328561)
(-87.6776979665 0 0.390187542467)
(-87.6777337972 0 0.390275647797)
(-87.677788235 0 0.390361460469)
(-87.6778592742 0 0.390443503775)
(-87.6779439132 0 0.390520713583)
(-87.6780388008 0 0.390592402039)
(-87.678140394 0 0.390658315823)
(-87.6782450246 0 0.39071862794)
(-87.6783490769 0 0.390773834217)
(-87.6784494246 0 0.390824419658)
(-87.6785438681 0 0.390870603321)
(-87.6786313776 0 0.390912270296)
(-87.6787120663 0 0.390948956836)
(-87.678786864 0 0.390979986652)
(-87.678857232 0 0.391004418433)
(-87.6789249088 0 0.391021055379)
(-87.6789914916 0 0.391028784014)
(-87.6790580122 0 0.391027066346)
(-87.6791249485 0 0.391015639082)
(-87.6791922517 0 0.390993972651)
(-87.6792594849 0 0.390962201991)
(-87.6793265631 0 0.390923135584)
(-87.6793947753 0 0.390883145152)
(-87.6794661671 0 0.390849590905)
(-87.6795424284 0 0.390828400875)
(-87.6796243816 0 0.390824804062)
(-87.6797109894 0 0.390841537526)
(-87.6798020623 0 0.390878910534)
(-87.6798985891 0 0.39093597247)
(-87.6800002258 0 0.391010439976)
(-87.6801047173 0 0.391097927243)
(-87.6802091907 0 0.391191479774)
(-87.6803101818 0 0.391282997776)
(-87.6804018739 0 0.391364140303)
(-87.680474283 0 0.39142931654)
(-87.6805271928 0 0.391473630365)
(-87.6805697935 0 0.391494594877)
(-87.6805940607 0 0.391492818775)
(-87.6805829868 0 0.391463753828)
(-87.6805355578 0 0.391405700767)
(-87.6804528911 0 0.391319926339)
(-87.680334828 0 0.391209749384)
(-87.6801827656 0 0.391079280168)
(-87.6800002437 0 0.390933503213)
(-87.6797933068 0 0.390778079121)
(-87.6795700372 0 0.390618621937)
(-87.6793397193 0 0.390460471234)
(-87.679111743 0 0.390308411502)
(-87.6788943866 0 0.390167171973)
(-87.6786943098 0 0.390040717463)
(-87.6785164834 0 0.389931588198)
(-87.6783630588 0 0.389841639138)
(-87.6782331826 0 0.389771967384)
(-87.6781243564 0 0.38972220471)
(-87.6786285329 0 0.412766993266)
(-87.6784765464 0 0.412716831559)
(-87.6783369442 0 0.412682650923)
(-87.67820922 0 0.412664865708)
(-87.6780971334 0 0.412665403269)
(-87.6780022058 0 0.412681151764)
(-87.677919132 0 0.412708273381)
(-87.6778484333 0 0.412744795851)
(-87.6777974518 0 0.412789708392)
(-87.67777075 0 0.412840630841)
(-87.6777720121 0 0.41289670671)
(-87.6778029022 0 0.412954362906)
(-87.6778593247 0 0.413011869074)
(-87.6779362686 0 0.413069177591)
(-87.6780296455 0 0.413125250687)
(-87.6781347672 0 0.413179283196)
(-87.6782469416 0 0.41323099435)
(-87.6783620356 0 0.413280274509)
(-87.6784766329 0 0.413327169461)
(-87.6785882387 0 0.413371575337)
(-87.678695358 0 0.413413123904)
(-87.6787974607 0 0.413451144741)
(-87.678894816 0 0.413484498334)
(-87.6789881226 0 0.413511731262)
(-87.6790782137 0 0.413531215858)
(-87.6791658388 0 0.413541333021)
(-87.679251436 0 0.413540813843)
(-87.6793349544 0 0.413529189124)
(-87.6794159191 0 0.413506570527)
(-87.6794935211 0 0.413472795366)
(-87.6795667611 0 0.413427762474)
(-87.6796349439 0 0.413373644015)
(-87.6796983027 0 0.413316596898)
(-87.6797574545 0 0.413264759304)
(-87.6798136731 0 0.413225606691)
(-87.6798698275 0 0.413205179668)
(-87.6799262851 0 0.413206964486)
(-87.6799808672 0 0.413231350317)
(-87.6800343804 0 0.413282597057)
(-87.6800957783 0 0.413358238665)
(-87.6801672134 0 0.413454811908)
(-87.6802499682 0 0.413567037759)
(-87.6803442438 0 0.413688511676)
(-87.6804490252 0 0.413812654526)
(-87.6805639847 0 0.413932142737)
(-87.680684168 0 0.414039030879)
(-87.6807946797 0 0.41412941867)
(-87.6808883935 0 0.414199751824)
(-87.680971292 0 0.41424579732)
(-87.681037542 0 0.414268782877)
(-87.6810714366 0 0.414266351889)
(-87.6810615771 0 0.414232524027)
(-87.6810064959 0 0.414169682202)
(-87.6809062602 0 0.414079509864)
(-87.680760771 0 0.413968698223)
(-87.6805754282 0 0.413840562062)
(-87.6803593458 0 0.413700621722)
(-87.6801233517 0 0.413553876484)
(-87.679878013 0 0.413407178882)
(-87.6796336179 0 0.413266418713)
(-87.6793987486 0 0.413136100032)
(-87.6791794708 0 0.4130191414)
(-87.6789782928 0 0.41291802403)
(-87.6787952776 0 0.41283366555)
(-87.679874494 0 0.426093880167)
(-87.6796631254 0 0.426030696693)
(-87.6794663712 0 0.425977915912)
(-87.6792840589 0 0.425933570805)
(-87.6791191048 0 0.425897353416)
(-87.6789755098 0 0.425871339652)
(-87.6788542675 0 0.425854729979)
(-87.6787552142 0 0.425844030781)
(-87.6786818596 0 0.425838049096)
(-87.6786394894 0 0.425836228544)
(-87.6786307432 0 0.425838532383)
(-87.6786551367 0 0.42584546862)
(-87.6787079345 0 0.425857150249)
(-87.6787828845 0 0.425874525505)
(-87.6788763922 0 0.425897660261)
(-87.6789839577 0 0.425925387193)
(-87.679100387 0 0.425956865772)
(-87.6792212858 0 0.425991215058)
(-87.6793430742 0 0.426027587398)
(-87.6794630765 0 0.426064946457)
(-87.6795793785 0 0.426102072744)
(-87.6796904664 0 0.426137656506)
(-87.6797952032 0 0.426170002376)
(-87.6798926454 0 0.426197172642)
(-87.6799820447 0 0.426217158682)
(-87.6800629577 0 0.426228109634)
(-87.6801352566 0 0.426228500361)
(-87.6801989097 0 0.426217234708)
(-87.6802536675 0 0.426193175204)
(-87.6802988613 0 0.426154887521)
(-87.6803349065 0 0.42610216062)
(-87.6803640604 0 0.426037114724)
(-87.6803879813 0 0.425965203799)
(-87.6804077339 0 0.425894958285)
(-87.680424162 0 0.425835659944)
(-87.6804391147 0 0.425794248392)
(-87.6804589494 0 0.425772031604)
(-87.6804861118 0 0.425765992277)
(-87.68051711 0 0.425785762277)
(-87.6805620129 0 0.425833940795)
(-87.6806248061 0 0.425908117831)
(-87.6807107615 0 0.426002765166)
(-87.6808213828 0 0.426113197374)
(-87.6809563511 0 0.426235479145)
(-87.6811161887 0 0.426364035973)
(-87.6812972209 0 0.426494844017)
(-87.6814873372 0 0.426623578947)
(-87.6816722221 0 0.426742260961)
(-87.6818479338 0 0.426842503319)
(-87.6820121841 0 0.426923113144)
(-87.6821486172 0 0.42698495109)
(-87.6822398206 0 0.427023986652)
(-87.6822778976 0 0.42703958131)
(-87.6822647304 0 0.427031711573)
(-87.6821890864 0 0.426997495706)
(-87.6820589903 0 0.426936412932)
(-87.6818788996 0 0.426858559184)
(-87.6816577302 0 0.426766036392)
(-87.6814075293 0 0.426662865351)
(-87.6811406345 0 0.426555315619)
(-87.6808684338 0 0.42644883269)
(-87.6806008996 0 0.426346724957)
(-87.6803440677 0 0.426252585803)
(-87.6801016187 0 0.426167732429)
(-87.6810703981 0 0.428475037094)
(-87.6808431001 0 0.428432537921)
(-87.6806316629 0 0.428395287278)
(-87.6804358946 0 0.428360885894)
(-87.6802561795 0 0.428327320231)
(-87.6800946585 0 0.428294657262)
(-87.6799556091 0 0.428263597126)
(-87.6798439917 0 0.428232685106)
(-87.6797615514 0 0.428201287999)
(-87.6797068287 0 0.428171248962)
(-87.6796789845 0 0.428144473512)
(-87.6796813498 0 0.428116405386)
(-87.6797050007 0 0.42809235417)
(-87.6797436328 0 0.428074681701)
(-87.6797999019 0 0.428065050193)
(-87.6798724738 0 0.428063893245)
(-87.6799581137 0 0.428069706626)
(-87.6800539007 0 0.428081287646)
(-87.6801570753 0 0.428097577034)
(-87.6802651764 0 0.428117339879)
(-87.6803760186 0 0.42813927281)
(-87.6804873718 0 0.428161795489)
(-87.6805964639 0 0.428183210467)
(-87.6807003154 0 0.428201551647)
(-87.680796497 0 0.428214608999)
(-87.6808835565 0 0.428220225412)
(-87.6809609039 0 0.428216470353)
(-87.6810284184 0 0.428201588951)
(-87.6810858229 0 0.42817325105)
(-87.681132357 0 0.428128974902)
(-87.681169232 0 0.428068352234)
(-87.6811991063 0 0.42799359195)
(-87.681223035 0 0.427910420059)
(-87.6812415818 0 0.427827907561)
(-87.6812549418 0 0.427755838221)
(-87.6812639914 0 0.427701510898)
(-87.6812711706 0 0.427667983906)
(-87.6812778717 0 0.42765456326)
(-87.6812864502 0 0.427654515012)
(-87.6813044081 0 0.427679347345)
(-87.6813279114 0 0.427734842324)
(-87.6813684958 0 0.427810712369)
(-87.6814318372 0 0.427900329802)
(-87.681517767 0 0.428003181194)
(-87.6816339729 0 0.428113796962)
(-87.6817788963 0 0.428231444495)
(-87.6819511973 0 0.428352266863)
(-87.6821461915 0 0.428470625981)
(-87.6823529348 0 0.428581377121)
(-87.6825544763 0 0.428679121692)
(-87.6827372879 0 0.428761302695)
(-87.6828914253 0 0.428828756056)
(-87.6830047585 0 0.428880395435)
(-87.6830671292 0 0.428914857724)
(-87.6830764519 0 0.428931694666)
(-87.6830302729 0 0.428929902236)
(-87.6829295677 0 0.428907580324)
(-87.68277613 0 0.428874721623)
(-87.6825797351 0 0.428825862375)
(-87.6823485879 0 0.428767781358)
(-87.6820952106 0 0.428704283644)
(-87.6818314823 0 0.428640434939)
(-87.681568061 0 0.428579813087)
(-87.6813128154 0 0.428524247457)
(-87.6813101834 0 0.421249947174)
(-87.6810645593 0 0.421243006394)
(-87.6808399314 0 0.421241382388)
(-87.6806374681 0 0.421242086514)
(-87.6804573027 0 0.42124212875)
(-87.680299426 0 0.421239507295)
(-87.6801650286 0 0.421232758758)
(-87.6800565524 0 0.42122094197)
(-87.6799752124 0 0.421204480763)
(-87.6799193474 0 0.421186392294)
(-87.6798864356 0 0.421166355133)
(-87.6798787673 0 0.421138445273)
(-87.6798901915 0 0.421111308408)
(-87.6799105876 0 0.421082194447)
(-87.6799444783 0 0.42105662489)
(-87.6799928541 0 0.421032923402)
(-87.6800579319 0 0.421011900442)
(-87.6801369567 0 0.420993399875)
(-87.6802268341 0 0.420977775546)
(-87.6803244373 0 0.420965409455)
(-87.6804262697 0 0.420956580163)
(-87.6805283127 0 0.420951286081)
(-87.6806264744 0 0.420948937277)
(-87.6807175796 0 0.420948010642)
(-87.6807999558 0 0.420946061632)
(-87.6808731007 0 0.420940292327)
(-87.6809370591 0 0.420928072806)
(-87.6809920184 0 0.420906571001)
(-87.6810369411 0 0.42087137868)
(-87.6810699924 0 0.420818907853)
(-87.6810942879 0 0.420748397102)
(-87.6811107541 0 0.420661632546)
(-87.6811195078 0 0.420564760235)
(-87.6811225446 0 0.420467505578)
(-87.6811211134 0 0.420380242073)
(-87.6811175143 0 0.420309811565)
(-87.6811133779 0 0.420257917049)
(-87.6811100675 0 0.42022372082)
(-87.6811118341 0 0.420207984854)
(-87.6811181662 0 0.420209108051)
(-87.6811370251 0 0.420231264902)
(-87.6811660683 0 0.420276099416)
(-87.6812153557 0 0.42033337637)
(-87.6812868932 0 0.420401415026)
(-87.6813882968 0 0.420476681907)
(-87.6815208859 0 0.420560400604)
(-87.6816877814 0 0.4206505496)
(-87.6818896135 0 0.420744057988)
(-87.6821183301 0 0.42084206673)
(-87.6823584095 0 0.420938864413)
(-87.68259224 0 0.421026731367)
(-87.682801858 0 0.421107343731)
(-87.6829712961 0 0.42118042327)
(-87.6830909957 0 0.421244114115)
(-87.6831552518 0 0.421295979836)
(-87.6831608227 0 0.421328647745)
(-87.6831065844 0 0.421351076312)
(-87.6829983622 0 0.421368781923)
(-87.6828425707 0 0.421366914779)
(-87.6826388936 0 0.421354160182)
(-87.6823963828 0 0.421332763107)
(-87.6821285967 0 0.421307135331)
(-87.6818500151 0 0.421282936661)
(-87.6815739187 0 0.421263536083)
(-87.6805275162 0 0.402069475633)
(-87.6802635232 0 0.402071374014)
(-87.6800267161 0 0.402080680513)
(-87.6798205029 0 0.402095963073)
(-87.6796458153 0 0.402114897161)
(-87.6795019815 0 0.402135503037)
(-87.6793879387 0 0.402154863995)
(-87.6793028567 0 0.402171106662)
(-87.6792450749 0 0.402184523021)
(-87.6792129685 0 0.40219574063)
(-87.6792030672 0 0.402204088363)
(-87.6792135265 0 0.402209100417)
(-87.6792384421 0 0.402209752771)
(-87.679274486 0 0.402201938698)
(-87.6793224152 0 0.402189209187)
(-87.679382602 0 0.402169052874)
(-87.679454721 0 0.402142639805)
(-87.6795363688 0 0.402111153579)
(-87.6796239723 0 0.40207652246)
(-87.6797131692 0 0.402041324395)
(-87.6797994084 0 0.402008227127)
(-87.6798786576 0 0.401978912323)
(-87.6799483457 0 0.40195370659)
(-87.6800080446 0 0.401931665157)
(-87.6800591921 0 0.401910732814)
(-87.6801038835 0 0.401888138838)
(-87.6801437455 0 0.401860746924)
(-87.6801791812 0 0.401824103975)
(-87.6802090738 0 0.401772424467)
(-87.680234022 0 0.401701398858)
(-87.6802548853 0 0.401609192571)
(-87.6802669902 0 0.40149736389)
(-87.6802716021 0 0.401371974198)
(-87.6802712624 0 0.401242624001)
(-87.680266963 0 0.401119890331)
(-87.680261423 0 0.401011627797)
(-87.6802570177 0 0.400921173871)
(-87.6802561863 0 0.400849430282)
(-87.6802597163 0 0.400798875792)
(-87.6802670174 0 0.400769231627)
(-87.680287292 0 0.400757247824)
(-87.6803168281 0 0.400766217958)
(-87.6803549499 0 0.40079497547)
(-87.6804130911 0 0.4008357267)
(-87.6804950816 0 0.400887278183)
(-87.6806056104 0 0.400948946807)
(-87.6807479872 0 0.401020912638)
(-87.680925222 0 0.401102462999)
(-87.6811362523 0 0.401195876444)
(-87.6813702535 0 0.401301257124)
(-87.6816118932 0 0.401408763016)
(-87.6818395967 0 0.40151718606)
(-87.6820319294 0 0.401625652264)
(-87.6821758852 0 0.401728795106)
(-87.682267663 0 0.401820792462)
(-87.6823045224 0 0.401898209175)
(-87.6822703976 0 0.401967647772)
(-87.6821847183 0 0.402022711571)
(-87.6820602682 0 0.402064378796)
(-87.6818855655 0 0.402087197828)
(-87.6816604396 0 0.402096390914)
(-87.6813952725 0 0.402092946369)
(-87.6811065486 0 0.402083256336)
(-87.6808121256 0 0.402074438039)
(-87.6806712116 0 0.369480070105)
(-87.68038922 0 0.369448626756)
(-87.680130768 0 0.369423352208)
(-87.6799032974 0 0.369406654438)
(-87.6797112278 0 0.369400666618)
(-87.6795557217 0 0.36940595824)
(-87.6794345139 0 0.369419745095)
(-87.6793440203 0 0.369440659767)
(-87.6792828497 0 0.36947025352)
(-87.6792538228 0 0.369508886946)
(-87.6792570781 0 0.369552663234)
(-87.6792751665 0 0.369604015605)
(-87.6793164721 0 0.369654830527)
(-87.6793791065 0 0.369700523922)
(-87.6794585357 0 0.369738888337)
(-87.6795516147 0 0.36976687747)
(-87.6796544615 0 0.369783320051)
(-87.6797619046 0 0.369788372211)
(-87.6798674736 0 0.369783610889)
(-87.6799645713 0 0.369771843653)
(-87.6800483665 0 0.369756286399)
(-87.6801166873 0 0.369738850478)
(-87.6801697375 0 0.369720195336)
(-87.6802096945 0 0.369700172735)
(-87.6802403349 0 0.369677766194)
(-87.6802659606 0 0.369651154794)
(-87.6802904483 0 0.369617686645)
(-87.6803164098 0 0.36957297108)
(-87.6803445036 0 0.36951127567)
(-87.6803741979 0 0.369428964898)
(-87.6804023431 0 0.369324535374)
(-87.680425033 0 0.369198594162)
(-87.680442385 0 0.369056133745)
(-87.6804558012 0 0.368905998502)
(-87.6804629846 0 0.368758348942)
(-87.6804643672 0 0.368621815405)
(-87.6804627967 0 0.368501693401)
(-87.6804611608 0 0.368400145867)
(-87.6804607362 0 0.368318972955)
(-87.680460864 0 0.368260375755)
(-87.6804632144 0 0.368223711468)
(-87.6804768009 0 0.368206434573)
(-87.6804993071 0 0.368208404165)
(-87.6805300505 0 0.368228687225)
(-87.6805803419 0 0.368259851284)
(-87.6806545788 0 0.368303456244)
(-87.6807584113 0 0.368356121583)
(-87.6808930214 0 0.368421286712)
(-87.6810616771 0 0.368499475971)
(-87.6812571862 0 0.368596438488)
(-87.6814684286 0 0.368705321785)
(-87.6816797216 0 0.368823067524)
(-87.6818720597 0 0.368947699797)
(-87.6820297054 0 0.369071556915)
(-87.6821445102 0 0.36918823644)
(-87.6822143691 0 0.36929219027)
(-87.6822189108 0 0.369386024299)
(-87.6821674537 0 0.369454146939)
(-87.6820822099 0 0.36951699619)
(-87.6819433378 0 0.369553136453)
(-87.6817577242 0 0.369569504845)
(-87.6815268011 0 0.369565975132)
(-87.6812572018 0 0.369544757218)
(-87.6809656149 0 0.369514239546)
(-87.68090751 0 0.326538494149)
(-87.6806310425 0 0.326465945678)
(-87.680361242 0 0.326392474597)
(-87.6801097728 0 0.326324486111)
(-87.679885336 0 0.326270849768)
(-87.6796932746 0 0.326236029415)
(-87.6795336075 0 0.326219143054)
(-87.6794036224 0 0.326221361561)
(-87.6793066189 0 0.326246636844)
(-87.6792517245 0 0.326298221801)
(-87.6792282693 0 0.32636629636)
(-87.6792288546 0 0.326448362969)
(-87.6792643431 0 0.326540930694)
(-87.6793332601 0 0.32663969019)
(-87.6794308344 0 0.326739199)
(-87.6795500154 0 0.326834715643)
(-87.6796826606 0 0.326922807786)
(-87.6798191572 0 0.327001745922)
(-87.679949302 0 0.327071032491)
(-87.6800641196 0 0.32713109427)
(-87.6801579868 0 0.327182719323)
(-87.6802296648 0 0.327225816267)
(-87.6802808858 0 0.327259865548)
(-87.680314963 0 0.327284335165)
(-87.6803367728 0 0.327298316527)
(-87.6803534868 0 0.327300745965)
(-87.6803671054 0 0.327290174368)
(-87.6803841816 0 0.327263929617)
(-87.6804074212 0 0.327218972497)
(-87.6804365967 0 0.327151969465)
(-87.6804695682 0 0.327062862967)
(-87.6805037536 0 0.326953316859)
(-87.6805387062 0 0.326828349894)
(-87.6805730748 0 0.326696283742)
(-87.680601422 0 0.326566265137)
(-87.6806208222 0 0.326445649551)
(-87.6806330018 0 0.326338382183)
(-87.6806398545 0 0.326246017934)
(-87.6806400709 0 0.326169010804)
(-87.680634755 0 0.326107925683)
(-87.6806264903 0 0.326063155587)
(-87.6806188671 0 0.326034505091)
(-87.6806158287 0 0.32601814666)
(-87.6806244938 0 0.326009326622)
(-87.6806465701 0 0.326007840529)
(-87.6806865603 0 0.326013378844)
(-87.6807527452 0 0.326017076512)
(-87.680845954 0 0.326025545841)
(-87.680967024 0 0.32604040811)
(-87.6811135256 0 0.326068786867)
(-87.6812795173 0 0.326110798634)
(-87.681451478 0 0.32616706903)
(-87.6816193825 0 0.326235975174)
(-87.6817741753 0 0.326312501902)
(-87.6819027504 0 0.326393586128)
(-87.6819977067 0 0.326471708821)
(-87.6820532905 0 0.326539919678)
(-87.6820570547 0 0.326596279653)
(-87.6820182283 0 0.326645840183)
(-87.6819333439 0 0.326684139019)
(-87.6818018614 0 0.326694774581)
(-87.6816315616 0 0.326684938005)
(-87.6814223496 0 0.326654112345)
(-87.681176556 0 0.326603928296)
(-87.6808447605 0 0.280391480803)
(-87.6806005387 0 0.280324959629)
(-87.6803379802 0 0.280245198669)
(-87.6800705107 0 0.280160597219)
(-87.67981012 0 0.280084664298)
(-87.6795678984 0 0.280026022046)
(-87.6793501193 0 0.2799876953)
(-87.6791579607 0 0.279973944609)
(-87.6789990726 0 0.279988608431)
(-87.6788892152 0 0.280034860533)
(-87.6788238758 0 0.280103440018)
(-87.6787901579 0 0.280187944489)
(-87.6787968357 0 0.280288303323)
(-87.6788500378 0 0.28040236141)
(-87.6789445188 0 0.280526629786)
(-87.6790717671 0 0.280656622232)
(-87.6792201354 0 0.280788774003)
(-87.6793764587 0 0.280920772232)
(-87.6795282106 0 0.281050550137)
(-87.6796653335 0 0.281175833834)
(-87.6797813952 0 0.281294109594)
(-87.6798736975 0 0.281402583896)
(-87.679942358 0 0.281498433091)
(-87.6799895785 0 0.281578944968)
(-87.6800196034 0 0.28164126611)
(-87.6800376784 0 0.281682045396)
(-87.6800480264 0 0.281699413257)
(-87.6800545731 0 0.281700073715)
(-87.6800619736 0 0.28168375819)
(-87.6800744423 0 0.281641611343)
(-87.6800943404 0 0.281575761719)
(-87.6801203421 0 0.281492396288)
(-87.6801541505 0 0.281399721698)
(-87.6801941367 0 0.28130675215)
(-87.6802366108 0 0.281222123579)
(-87.6802778544 0 0.281151733818)
(-87.6803144335 0 0.281096758781)
(-87.6803438411 0 0.281055375922)
(-87.6803634945 0 0.281024281477)
(-87.6803752362 0 0.280999309879)
(-87.6803821664 0 0.28097709071)
(-87.6803853935 0 0.28095638457)
(-87.6803885035 0 0.280934613487)
(-87.680398347 0 0.280907312507)
(-87.6804203662 0 0.280871064136)
(-87.6804612749 0 0.280821998541)
(-87.6805215746 0 0.280757646261)
(-87.6806015768 0 0.280680574785)
(-87.6807016215 0 0.280596912746)
(-87.6808167295 0 0.280513491298)
(-87.680940157 0 0.280437064956)
(-87.6810697436 0 0.280372883466)
(-87.6812023867 0 0.280326663625)
(-87.6813270738 0 0.280303558673)
(-87.6814363596 0 0.280299273349)
(-87.6815272575 0 0.280308602982)
(-87.6815926684 0 0.28032813233)
(-87.6816258395 0 0.28035097425)
(-87.6816192661 0 0.280384245298)
(-87.6815768214 0 0.280429145862)
(-87.6814955259 0 0.280456725148)
(-87.6813800899 0 0.280468050337)
(-87.6812356809 0 0.280463695071)
(-87.6810586954 0 0.280438483423)
(-87.6806653117 0 0.237614488897)
(-87.680471558 0 0.237617601279)
(-87.6802371875 0 0.237591504351)
(-87.6799711662 0 0.237544296756)
(-87.679686018 0 0.237489181707)
(-87.6793969729 0 0.237437946016)
(-87.6791183787 0 0.237398475473)
(-87.6788598067 0 0.237378059406)
(-87.6786328409 0 0.23737952756)
(-87.6784550913 0 0.237404670348)
(-87.6783338852 0 0.237450822786)
(-87.6782583225 0 0.237511532864)
(-87.6782255476 0 0.237586572448)
(-87.6782427952 0 0.237674008336)
(-87.6783095425 0 0.23777305349)
(-87.6784176075 0 0.237884118103)
(-87.6785559627 0 0.238004696069)
(-87.6787106597 0 0.238132881219)
(-87.6788687176 0 0.238266629613)
(-87.6790198353 0 0.238402868056)
(-87.6791570895 0 0.238537796903)
(-87.6792767404 0 0.238666726065)
(-87.6793768747 0 0.238784542569)
(-87.679456592 0 0.238886094305)
(-87.6795157692 0 0.238966180103)
(-87.6795550795 0 0.239019024715)
(-87.6795761339 0 0.239041323)
(-87.6795846568 0 0.239042264591)
(-87.6795842497 0 0.239021693266)
(-87.6795836337 0 0.238969513819)
(-87.6795820293 0 0.238889314051)
(-87.6795893473 0 0.238790014881)
(-87.6796068865 0 0.23868473541)
(-87.679637467 0 0.238586611379)
(-87.6796814067 0 0.238507003329)
(-87.6797370111 0 0.238452826177)
(-87.6798016532 0 0.238425448344)
(-87.6798710117 0 0.238421861818)
(-87.6799414984 0 0.238434705751)
(-87.6800118501 0 0.238454142639)
(-87.6800777837 0 0.238472211176)
(-87.6801405588 0 0.238481505133)
(-87.6802069899 0 0.238477710712)
(-87.68028054 0 0.238458428735)
(-87.6803624331 0 0.238415361483)
(-87.6804552275 0 0.238341569597)
(-87.6805599445 0 0.238238501562)
(-87.6806718641 0 0.238108090372)
(-87.6807867751 0 0.237957212502)
(-87.6808982926 0 0.237796553584)
(-87.68099773 0 0.237636919454)
(-87.6810777143 0 0.237487803859)
(-87.6811393084 0 0.237360830031)
(-87.6811985357 0 0.237266189751)
(-87.6812519939 0 0.237203137911)
(-87.6812826945 0 0.237169388398)
(-87.6812973835 0 0.23716398179)
(-87.681293526 0 0.237190057483)
(-87.6812577348 0 0.237242574334)
(-87.6812022966 0 0.23731373398)
(-87.6811355524 0 0.237394332409)
(-87.6810518658 0 0.23747055979)
(-87.6809475937 0 0.237539934495)
(-87.6808201559 0 0.237587345729)
(-87.6805818692 0 0.20126429393)
(-87.6804593847 0 0.201331559331)
(-87.6802931406 0 0.201363034632)
(-87.6800746198 0 0.201362963912)
(-87.6798116775 0 0.2013398365)
(-87.6795195575 0 0.201305744974)
(-87.6792177535 0 0.201271542981)
(-87.6789250909 0 0.201248180925)
(-87.6786591411 0 0.201238173806)
(-87.6784375614 0 0.201243376661)
(-87.6782720345 0 0.201264881106)
(-87.6781607445 0 0.201300952367)
(-87.6780985344 0 0.201348675152)
(-87.6780826841 0 0.201406155073)
(-87.678110951 0 0.201471758121)
(-87.6781813242 0 0.201548865821)
(-87.6782862498 0 0.2016378938)
(-87.6784139466 0 0.201736818833)
(-87.6785516398 0 0.201845029236)
(-87.6786905817 0 0.20195983519)
(-87.6788248687 0 0.202078231484)
(-87.6789509309 0 0.202195884773)
(-87.6790657278 0 0.202307351851)
(-87.679165022 0 0.202405869868)
(-87.6792443712 0 0.202483134413)
(-87.6793004893 0 0.202531002608)
(-87.6793317067 0 0.202548671634)
(-87.6793441791 0 0.202539676949)
(-87.6793433454 0 0.202491814049)
(-87.679327327 0 0.20240032721)
(-87.6793042258 0 0.202269419925)
(-87.6792819399 0 0.20210948477)
(-87.6792665771 0 0.20193556899)
(-87.6792631899 0 0.201765296056)
(-87.6792755995 0 0.20161581757)
(-87.6793078642 0 0.201499405156)