/*--------------------------------*- C++ -*----------------------------------*\
  =========                 |
  \\      /  F ield         | OpenFOAM: The Open Source CFD Toolbox
   \\    /   O peration     | Website:  https://openfoam.org
    \\  /    A nd           | Version:  6
     \\/     M anipulation  |
\*---------------------------------------------------------------------------*/
FoamFile
{
    version     2.0;
    format      ascii;
    class       volScalarField;
    location    "4.81e-05";
    object      p;
}
// * * * * * * * * * * * * * * * * * * * * * * * * * * * * * * * * * * * * * //

dimensions      [1 -1 -2 0 0 0 0];

internalField   nonuniform List<scalar> 
8192
(
6000000.00067
5999999.99937
6000000.00043
6000000.00096
6000000.00466
5999999.99783
6000000.00162
5999999.99951
6000000.00034
5999999.99983
6000000.00022
5999999.99983
6000000.0006
6000000.00145
6000000.00077
6000000.0006
6000000.00052
5999999.99819
5999999.99902
6000000.00064
5999999.99855
5999999.99725
6000000.00174
5999999.99984
5999999.99953
6000000.00008
5999999.99812
5999999.99917
5999999.99823
5999999.99905
6000000.00024
6000000.00059
5999999.9965
5999999.9938
6000000.00772
6000000.00758
5999999.99908
6000000.00443
5999999.99952
5999999.9971
6000000.0037
5999999.99763
6000000.00028
5999999.99989
6000000.00041
6000000.00038
6000000.00009
5999999.99979
5999999.99924
6000000.00166
5999999.997
6000000.00064
6000000.00311
5999999.99588
5999999.99649
6000000.00117
5999999.99991
6000000.00308
6000000.00002
6000000.00576
5999999.99663
5999999.99739
5999999.997
6000000.00249
6000000.00072
6000000.00216
5999999.99991
6000000.00391
5999999.99566
6000000.0032
5999999.99865
5999999.99669
6000000.00268
6000000.00275
6000000.00683
5999999.99672
5999999.99445
6000000.00645
6000000.00247
5999999.99532
5999999.99442
5999999.99177
6000000.00316
6000000.00586
6000000.00009
5999999.99917
6000000.0064
6000000.00474
5999999.99754
5999999.99716
5999999.99846
5999999.99832
5999999.99706
6000000.00438
5999999.99682
6000000.00226
6000000.0016
5999999.99941
6000000.00377
5999999.99823
5999999.99969
5999999.99988
5999999.9997
6000000.00022
5999999.99906
6000000.00029
6000000.00012
6000000
5999999.99998
5999999.99998
6000000.00006
6000000.00028
5999999.9994
6000000.00064
5999999.99974
6000000.00128
6000000.00011
5999999.99863
6000000.00079
5999999.99906
5999999.99924
5999999.99884
6000000.00013
5999999.9989
6000000.00019
5999999.99951
6000000.00031
6000000.00033
6000000.00605
6000000.00053
5999999.99691
6000000.00052
5999999.99862
5999999.99953
5999999.99997
5999999.99969
6000000.00072
6000000.00088
5999999.99854
6000000.00369
6000000.00077
6000000.00321
6000000.00437
5999999.99656
5999999.99683
5999999.99809
6000000.00213
6000000.00232
5999999.99989
5999999.99988
5999999.99883
6000000.0007
5999999.99476
6000000.00058
5999999.99703
5999999.99667
6000000.00167
6000000.00111
5999999.99838
5999999.99913
5999999.99977
5999999.99964
6000000.00018
6000000.00051
5999999.99963
6000000.00228
6000000.00018
6000000.00116
5999999.99781
6000000.00062
5999999.99738
6000000.00313
6000000.00202
6000000.00275
6000000.00195
6000000.00412
6000000.00227
6000000.00042
5999999.99422
6000000.00293
6000000.00163
5999999.99791
6000000.00072
5999999.99798
6000000.00283
6000000.00088
6000000.00208
5999999.99317
5999999.99244
6000000.00185
6000000.0063
6000000.00417
5999999.99926
5999999.99939
6000000.00111
6000000.00035
5999999.99991
6000000.00001
5999999.99997
6000000.00001
6000000.00015
6000000.00005
6000000.00002
5999999.99751
5999999.99756
6000000.00293
5999999.99924
5999999.99996
6000000.00005
5999999.99998
6000000.0001
6000000.00027
6000000.00039
5999999.99944
5999999.99994
6000000.00003
5999999.9998
6000000.00015
6000000.00006
5999999.99554
6000000.00089
6000000.00173
5999999.99701
6000000.00092
6000000.00692
5999999.99409
5999999.99689
6000000.00532
6000000.00861
5999999.9918
5999999.99492
6000000.00147
6000000.00392
5999999.99559
6000000.00319
6000000.00032
6000000.00484
5999999.99822
6000000.00715
6000000.00362
5999999.99113
6000000.00038
6000000.00649
5999999.99832
6000000.0054
5999999.9938
5999999.9984
6000000.00151
6000000.00323
6000000.00399
6000000.00053
6000000.00231
6000000.00082
5999999.99893
5999999.99936
5999999.99921
5999999.99989
5999999.99879
6000000.00059
5999999.99795
6000000.00214
5999999.99834
5999999.99963
5999999.99921
5999999.99967
5999999.99992
5999999.99976
6000000.00137
6000000.00162
5999999.99654
6000000.00034
6000000.00155
5999999.99994
6000000.00287
5999999.99518
5999999.99709
6000000.00511
6000000.00093
5999999.99627
5999999.99486
5999999.9996
5999999.99419
5999999.99836
5999999.99459
6000000.00169
6000000.00541
5999999.99602
6000000.00063
5999999.99913
6000000.00136
5999999.99946
5999999.9993
6000000.00168
5999999.99764
6000000.00201
6000000.00016
6000000.00004
6000000.00016
6000000.00001
6000000.00001
6000000.00002
6000000.00037
5999999.99888
6000000.00146
5999999.997
5999999.99985
5999999.99836
6000000.00181
6000000.00608
5999999.9985
5999999.99328
6000000.00282
6000000.00688
5999999.99772
6000000.00351
5999999.99826
6000000.00694
5999999.99617
5999999.99668
5999999.99631
6000000.00189
6000000.00233
5999999.99522
6000000.00183
6000000.00104
6000000.00001
6000000.00096
5999999.99849
6000000.00041
6000000.00077
5999999.99796
6000000.00258
6000000.00227
6000000.00097
6000000.00024
5999999.99968
5999999.99703
5999999.99746
6000000.00059
6000000.00098
5999999.99975
5999999.99837
5999999.99767
6000000.00081
5999999.99653
6000000.00079
5999999.99651
5999999.99411
5999999.99663
6000000.00358
5999999.99736
5999999.99629
6000000.00731
5999999.99875
6000000.003
6000000.00002
5999999.99653
6000000.00393
5999999.99547
6000000.00372
5999999.99983
5999999.99941
6000000.00106
5999999.9997
6000000.00077
6000000.00009
6000000.00079
6000000.00164
5999999.99808
6000000.00301
6000000.00127
5999999.99733
6000000.00193
5999999.99997
5999999.99994
6000000.00389
5999999.99795
6000000.00383
6000000.00295
5999999.99385
5999999.99228
5999999.99549
5999999.99875
6000000.00115
6000000.0021
6000000.00301
5999999.99415
5999999.99155
6000000.00161
5999999.99596
5999999.99873
6000000.00518
5999999.99831
5999999.99877
6000000.00218
5999999.99659
5999999.99801
6000000.00655
5999999.99604
5999999.9992
5999999.99408
6000000.00192
6000000.00517
5999999.99968
5999999.99805
5999999.99134
6000000.00415
5999999.99916
6000000.00454
5999999.99875
5999999.99671
6000000.00299
5999999.99468
5999999.99354
6000000.0003
6000000.00288
5999999.99817
5999999.99797
5999999.99768
6000000.00186
6000000.00195
5999999.99758
6000000.00199
5999999.99852
5999999.99935
6000000.00105
5999999.99915
5999999.9997
5999999.99997
6000000.00051
6000000.00125
5999999.99703
6000000.00144
6000000.0004
5999999.99953
5999999.99735
6000000.0017
6000000.00051
5999999.99888
6000000.00152
6000000.00131
5999999.99779
5999999.9994
6000000.00031
5999999.9994
5999999.99679
5999999.99696
5999999.99872
5999999.99561
6000000.00256
6000000.00204
6000000.00032
6000000.00049
5999999.99917
6000000.003
5999999.99801
6000000.00302
6000000.00205
5999999.99543
6000000.00461
6000000.00137
6000000.00052
6000000.0008
5999999.99829
6000000.00212
6000000.00005
5999999.99911
6000000.00118
6000000.00013
5999999.99946
5999999.99735
6000000.00422
5999999.99678
5999999.99952
6000000.00171
5999999.99693
6000000.00363
5999999.99619
6000000.00253
5999999.999
5999999.9993
5999999.99717
6000000.00263
6000000.00634
5999999.99809
5999999.99799
6000000.001
6000000.00264
5999999.99828
5999999.99735
6000000.00574
5999999.99817
5999999.99978
5999999.9997
6000000.00074
6000000.00309
5999999.99754
6000000.00434
5999999.99842
5999999.9986
6000000.00179
6000000.00026
5999999.99978
6000000.00328
6000000.00055
6000000.0028
5999999.99881
5999999.99899
5999999.99948
5999999.99738
5999999.99467
6000000.00266
6000000.00117
5999999.99856
5999999.99957
5999999.99881
6000000.0001
5999999.99833
6000000.00088
5999999.99905
6000000.00026
5999999.99961
5999999.99992
6000000.00017
5999999.99855
6000000.0008
6000000.00014
5999999.99988
5999999.99989
5999999.99981
6000000.00013
6000000.00022
5999999.9998
5999999.99989
5999999.99982
6000000.00002
5999999.99981
5999999.99992
5999999.99973
5999999.99953
6000000.00001
6000000
5999999.99981
5999999.99998
6000000.00005
5999999.99993
5999999.99863
6000000.00262
5999999.99823
5999999.99929
5999999.99914
5999999.99932
5999999.99998
5999999.99991
6000000.00001
5999999.99984
6000000.0013
6000000.00054
6000000.00005
6000000.00015
5999999.99942
5999999.99763
6000000.00271
6000000.00315
5999999.99867
5999999.99353
5999999.99291
6000000.00158
6000000.00597
6000000.00224
6000000.00415
5999999.99668
6000000.00456
5999999.99357
6000000.001
5999999.99628
6000000.00038
5999999.99995
6000000.00292
5999999.99898
6000000.00183
5999999.99764
6000000.00166
5999999.99975
6000000.00004
6000000.00026
6000000.00029
6000000.00003
5999999.99976
6000000.00276
5999999.99976
6000000.00001
6000000.00002
5999999.99992
5999999.99989
6000000.00003
6000000.00049
5999999.99903
5999999.99895
5999999.999
5999999.99915
5999999.99982
5999999.99859
5999999.99692
6000000.00168
6000000.00078
6000000.00082
6000000.00216
5999999.99756
5999999.99725
6000000.00763
6000000.00351
6000000.00128
6000000.00324
5999999.99728
5999999.99895
6000000.00092
5999999.99935
6000000.00073
6000000.0001
6000000.00055
6000000.00043
6000000.00232
5999999.99947
5999999.99807
6000000.0004
5999999.99962
5999999.99987
6000000.00504
5999999.99944
5999999.99777
6000000.00315
6000000.00172
6000000.00048
6000000.00099
5999999.99671
5999999.99785
6000000.0048
6000000.00522
6000000.00271
5999999.99707
5999999.99769
6000000.00283
5999999.99984
5999999.9982
5999999.99709
6000000.00378
6000000.00279
5999999.99987
6000000.00171
5999999.99809
6000000.00127
5999999.99951
6000000.00068
6000000.00072
6000000.00051
6000000.00104
5999999.99943
5999999.99903
6000000.00148
6000000.00123
5999999.99372
5999999.99466
6000000.00356
6000000.00111
5999999.99942
5999999.99846
6000000.00294
5999999.99722
6000000.00085
6000000.00148
6000000.00278
5999999.99314
6000000.00286
6000000.00168
6000000.00508
5999999.9954
5999999.99766
6000000.00145
6000000.00068
5999999.99464
5999999.99807
6000000.00447
6000000.0058
5999999.99914
6000000.0018
6000000.00126
6000000.00437
5999999.99719
6000000.00134
6000000.00173
5999999.9957
6000000.0033
6000000.00302
6000000.00564
6000000.00881
5999999.99525
5999999.99789
6000000.00397
6000000.00713
5999999.99431
5999999.99461
6000000.00249
5999999.9978
6000000
6000000.00066
5999999.99635
6000000.00208
5999999.99716
6000000.00073
5999999.99633
5999999.9944
6000000.00363
6000000.00335
5999999.99863
6000000.00335
6000000.00141
6000000.00025
5999999.99969
5999999.9989
5999999.99748
6000000.00389
6000000.00765
5999999.99645
5999999.99865
5999999.99219
6000000.00504
6000000.00642
5999999.99566
5999999.9973
5999999.99584
5999999.99744
5999999.99636
6000000.00078
5999999.99921
6000000.00148
5999999.99914
5999999.99967
6000000.00318
5999999.99455
5999999.99449
5999999.99637
6000000.0066
6000000.00017
5999999.99883
6000000.00094
5999999.99964
6000000.00248
5999999.99916
6000000.0016
6000000.00612
5999999.99618
5999999.99453
5999999.99292
6000000.00284
6000000.00264
5999999.99184
5999999.99691
5999999.99674
6000000.0014
5999999.99863
5999999.99343
6000000.00412
6000000.00434
5999999.99994
6000000.0009
5999999.99999
6000000.00046
6000000.00066
6000000.00036
6000000.00002
5999999.99998
5999999.99991
5999999.99988
6000000.00015
6000000.00026
5999999.99863
6000000.00196
6000000.00611
6000000.00006
6000000.00082
6000000.00265
5999999.99924
6000000.00319
6000000.00107
5999999.9998
5999999.99991
5999999.99982
6000000.00154
5999999.99761
5999999.99719
6000000.00113
5999999.99642
6000000.00101
5999999.99882
5999999.9996
5999999.9994
5999999.99994
5999999.99984
6000000.00008
6000000.00024
5999999.99768
6000000.00319
5999999.99864
5999999.99911
5999999.99995
5999999.99757
6000000.00099
6000000.00101
6000000.00008
6000000.00036
5999999.99891
6000000.00363
5999999.99991
6000000.00004
6000000.00053
5999999.99953
6000000.00042
5999999.99785
6000000.00554
6000000.00331
5999999.99529
5999999.99831
6000000.00227
5999999.998
6000000.00363
5999999.99909
5999999.99996
6000000.00003
5999999.99962
6000000.0002
5999999.99928
6000000.001
5999999.99721
6000000.00193
6000000.001
6000000.0009
5999999.99976
6000000.00021
5999999.99694
6000000.00726
6000000.0034
5999999.99399
6000000.00143
6000000.00303
6000000.00447
5999999.99627
5999999.99506
6000000.0037
5999999.99872
5999999.99946
6000000.00018
5999999.99993
5999999.99992
5999999.99996
6000000.00002
5999999.99989
5999999.99993
5999999.99988
6000000.0002
5999999.99852
6000000.00226
5999999.9973
5999999.99955
6000000.00129
5999999.99336
6000000.00515
6000000.00542
6000000.00171
5999999.99918
6000000.00342
6000000.00522
5999999.99688
5999999.99566
6000000.0033
5999999.99927
6000000.00337
6000000.00543
6000000.00057
6000000.00598
6000000.00007
5999999.99979
6000000.0009
6000000.00065
5999999.99988
6000000.00005
6000000.00348
5999999.99814
6000000.00086
6000000.00186
6000000.00319
6000000.00269
5999999.99429
6000000.00173
6000000.00059
6000000.0006
5999999.99907
6000000.00538
6000000.00325
5999999.99791
6000000.00279
6000000.00024
5999999.99937
6000000.00067
5999999.99925
6000000.00215
5999999.99328
6000000.00276
6000000.00163
5999999.99995
5999999.99898
6000000.00011
6000000.00097
5999999.99981
6000000.00002
6000000.00002
6000000
6000000.00001
5999999.99989
6000000.00001
5999999.99981
6000000
6000000.00023
5999999.99909
6000000.00138
5999999.99973
5999999.99979
5999999.99973
6000000.00017
5999999.99841
6000000.00046
6000000.00038
6000000.00068
5999999.99788
5999999.9981
6000000.00107
6000000.00158
5999999.99874
6000000.00098
5999999.99837
6000000.00282
6000000.00237
6000000.0005
6000000.00033
5999999.99959
5999999.9989
6000000.00228
5999999.99522
6000000.00668
5999999.99675
5999999.99472
6000000.004
6000000.00458
6000000.00532
6000000.00001
6000000.00017
5999999.99492
5999999.9951
5999999.99549
6000000.0017
5999999.99769
6000000.00523
5999999.99927
5999999.99757
6000000.0007
5999999.99745
6000000.00182
5999999.99801
6000000.00491
5999999.9932
5999999.99569
6000000.00448
5999999.9951
5999999.9968
5999999.99824
6000000.00171
6000000.00157
6000000.00114
6000000.00002
6000000.00105
6000000.00048
6000000.00242
5999999.99627
6000000.00195
6000000.00111
5999999.99978
5999999.99805
5999999.99987
5999999.99991
5999999.99811
5999999.99888
6000000.00127
5999999.99993
6000000.00145
6000000.002
5999999.99756
5999999.99889
6000000.00435
5999999.99927
5999999.99977
5999999.99991
6000000.00001
6000000.00001
6000000.00014
6000000.00003
5999999.99989
6000000.00058
6000000.00021
5999999.99635
6000000.00074
5999999.99973
5999999.9998
6000000.00002
6000000.00032
5999999.99804
6000000.00334
6000000.00197
5999999.99508
6000000.00669
5999999.99385
5999999.99281
6000000.00283
6000000.0057
5999999.99196
5999999.99759
5999999.99734
5999999.99943
6000000.00177
5999999.998
6000000.00105
5999999.99628
5999999.99712
6000000.00034
5999999.99766
6000000.00303
5999999.99784
6000000.00169
6000000.00304
5999999.99527
5999999.99557
5999999.9945
5999999.99949
6000000.00478
6000000.00196
5999999.99614
5999999.99302
6000000.00427
6000000.0032
5999999.994
5999999.9989
6000000.0059
6000000.00435
5999999.99764
5999999.99797
6000000.00415
5999999.99968
6000000.00002
6000000.00001
5999999.99993
6000000.00078
6000000.00149
5999999.99848
5999999.9982
5999999.99882
6000000.00021
6000000.00155
5999999.99961
6000000.00059
5999999.99838
5999999.99779
6000000.00146
6000000.00049
6000000.00021
6000000.00002
6000000
5999999.99992
5999999.99996
6000000.00026
5999999.99926
5999999.99874
6000000.0002
6000000.00249
5999999.99792
5999999.99985
5999999.99996
5999999.99484
6000000.00065
6000000.00053
6000000.00405
6000000.00173
5999999.99961
6000000.00127
6000000.00048
5999999.99783
6000000.00321
5999999.99677
6000000.0029
6000000.00098
6000000.00456
5999999.99932
5999999.9997
6000000.00593
6000000.00239
6000000.00336
6000000.00198
5999999.99629
5999999.99886
6000000.0027
5999999.99976
5999999.99709
5999999.99734
6000000.00226
5999999.99732
5999999.99918
5999999.99702
6000000.0003
6000000.00221
5999999.99856
5999999.99865
5999999.99877
5999999.99979
5999999.99982
6000000.00125
6000000.00045
6000000.00056
5999999.99914
6000000.00152
6000000.00158
5999999.99805
6000000.00004
6000000.00011
6000000.00002
6000000.00011
6000000.00004
6000000.00091
6000000.00116
5999999.99821
6000000.00257
6000000.00174
5999999.99647
6000000.00472
5999999.99518
5999999.99821
6000000.0027
6000000.0066
6000000.0031
6000000.00229
6000000.00161
5999999.99249
5999999.99738
5999999.99854
5999999.99918
6000000.00341
6000000.005
5999999.9933
5999999.997
5999999.99473
6000000.00592
6000000.00274
6000000.0029
5999999.99879
6000000.00083
6000000.00074
6000000.0018
5999999.99956
5999999.99907
5999999.99975
6000000.00003
5999999.99996
6000000.0008
5999999.9992
6000000.00097
5999999.99966
6000000
5999999.99872
5999999.99625
6000000.00338
6000000.00103
5999999.99589
5999999.99504
6000000.00577
5999999.99825
5999999.99573
6000000.00172
6000000.00639
5999999.99525
6000000.00426
5999999.99887
5999999.99815
6000000.00523
5999999.99938
6000000.00015
5999999.99998
6000000
6000000.00007
6000000.00001
6000000.00007
6000000.00002
6000000.00007
6000000.0002
6000000.00025
6000000.00003
6000000.00009
5999999.99946
6000000.00096
6000000.00149
5999999.99532
6000000.00338
6000000.00511
5999999.99861
6000000.0018
6000000.00217
6000000.00218
5999999.99929
6000000.0004
5999999.99371
6000000.00116
5999999.99933
6000000.0014
6000000.00259
5999999.99903
5999999.99875
5999999.99929
5999999.999
6000000.00022
5999999.99864
6000000.00118
6000000.00198
5999999.99839
5999999.99943
5999999.99897
6000000.0011
5999999.99983
6000000
5999999.99998
5999999.99937
6000000.00071
5999999.99919
5999999.99789
6000000.00347
5999999.99664
6000000.00161
5999999.99903
5999999.99938
5999999.99978
5999999.99925
6000000.00201
5999999.99534
6000000.00202
5999999.99942
5999999.99931
6000000.00002
5999999.99944
5999999.99987
5999999.99973
6000000.00095
5999999.99863
5999999.99941
5999999.99995
5999999.99993
5999999.99992
5999999.99998
6000000.00009
5999999.99993
5999999.99976
6000000
5999999.99989
5999999.9999
6000000.00001
5999999.99957
6000000.0015
5999999.99964
6000000.00015
6000000.00013
6000000.0013
5999999.99827
6000000.00164
5999999.99652
6000000.00242
6000000.00154
6000000.002
6000000.00242
5999999.99688
5999999.99939
5999999.9982
6000000.00227
5999999.99918
5999999.99784
6000000.00142
5999999.99843
5999999.99926
5999999.99968
6000000.0002
6000000.00397
6000000.0017
6000000.00334
5999999.99904
6000000.0003
6000000.00233
5999999.99503
6000000.00095
5999999.99651
6000000.00502
6000000.00212
5999999.99443
5999999.99525
5999999.99525
6000000.00568
6000000.00193
6000000.00591
5999999.99699
5999999.99774
6000000.00085
5999999.99493
5999999.99458
5999999.99708
5999999.99821
6000000.00201
5999999.99514
5999999.99704
5999999.99318
6000000.00019
5999999.9951
5999999.99796
5999999.99681
5999999.99673
5999999.99556
5999999.99488
6000000.00394
6000000.00117
6000000.00126
5999999.99456
6000000.0021
5999999.99981
6000000.00006
6000000.00092
5999999.99889
6000000.00017
5999999.99619
6000000.00323
5999999.99448
5999999.99472
6000000.00222
5999999.99436
5999999.99512
6000000.00607
5999999.99529
5999999.99391
6000000.00095
6000000.00184
5999999.99954
6000000.00117
6000000.00039
6000000.00024
5999999.99995
6000000.00062
5999999.99952
6000000.00046
5999999.9993
6000000.0001
6000000.00018
5999999.99992
5999999.99993
5999999.99998
6000000.00131
5999999.99956
5999999.9996
6000000.00127
6000000.00001
5999999.99975
5999999.99979
5999999.9995
5999999.99902
6000000.00027
6000000.00005
6000000.00035
5999999.99972
5999999.99929
6000000.00056
6000000.00186
5999999.99852
6000000.00095
6000000.00263
6000000.00252
5999999.99635
5999999.99753
6000000.00292
5999999.99945
6000000.00122
6000000.00061
5999999.99697
6000000.00271
6000000.0022
6000000.0002
5999999.99851
6000000.00005
5999999.99819
6000000.00323
6000000.00033
6000000.00117
5999999.99883
5999999.99785
6000000.0059
6000000.0056
5999999.9931
5999999.99727
6000000.00181
6000000.00149
5999999.99883
6000000.00124
5999999.99994
6000000.00321
5999999.99917
6000000.00215
5999999.99966
5999999.99965
6000000
6000000.00004
5999999.99997
5999999.99998
5999999.99998
6000000.00001
6000000.00004
6000000.00014
6000000
6000000
6000000.00001
5999999.99998
6000000.00019
5999999.99993
6000000.00001
5999999.99993
5999999.99996
6000000.00015
6000000.0002
5999999.99995
6000000.00014
5999999.99999
6000000
5999999.99984
6000000.00028
5999999.99995
6000000.00024
5999999.99954
5999999.99941
5999999.99928
6000000.00031
5999999.99983
6000000.00239
5999999.99948
5999999.99968
5999999.9998
6000000.0001
6000000.00003
6000000.00013
5999999.99993
6000000.00001
6000000
6000000.00003
5999999.99913
6000000.00063
5999999.99886
6000000.0032
5999999.99953
5999999.99882
6000000.00149
5999999.99885
6000000.00348
6000000.00377
5999999.9988
5999999.99978
6000000.00629
6000000.00084
6000000.0007
6000000.00083
5999999.99972
6000000.00003
6000000.00007
6000000.00026
6000000.00008
6000000.00006
6000000.00022
5999999.99925
6000000.00111
6000000.00056
6000000.00036
6000000.00023
5999999.99965
6000000.00001
5999999.99992
6000000.00002
5999999.99997
6000000.0009
5999999.99867
5999999.99745
6000000.0027
5999999.99788
6000000.00248
5999999.99671
5999999.99914
5999999.99982
5999999.99725
5999999.99966
6000000.00364
5999999.99542
5999999.99411
6000000.0016
5999999.99356
5999999.99358
6000000.00118
5999999.99719
5999999.99891
5999999.99594
6000000.00225
6000000.00214
5999999.9969
6000000.00432
5999999.99791
5999999.99791
6000000.0023
6000000.00222
5999999.99972
5999999.99934
5999999.99972
6000000.00007
5999999.99987
5999999.99952
6000000.00165
5999999.99945
6000000.00182
5999999.99853
5999999.9983
6000000.00015
5999999.99887
5999999.99947
5999999.99818
5999999.99881
5999999.99883
5999999.99992
5999999.99877
6000000.00397
5999999.9995
5999999.99815
5999999.99978
5999999.99998
5999999.99996
5999999.99983
5999999.99984
6000000.00022
5999999.99998
5999999.99996
6000000.00014
6000000.00008
5999999.99998
6000000.00007
5999999.99998
6000000.00016
6000000.00047
6000000.00053
5999999.9978
5999999.99836
6000000.00107
6000000.00013
5999999.99998
5999999.99997
6000000.00001
5999999.99989
5999999.99977
6000000.00008
5999999.99998
5999999.99911
6000000.00069
5999999.99961
6000000.00125
5999999.9992
6000000.00017
6000000.00166
5999999.99943
6000000.00037
5999999.99964
6000000.00005
5999999.99991
6000000
5999999.99983
5999999.99991
5999999.99996
5999999.99953
5999999.9987
6000000.00021
5999999.99905
6000000.00238
5999999.99824
6000000.00083
6000000.00044
5999999.99985
6000000.00025
6000000.00113
5999999.99922
5999999.99583
6000000.00332
6000000.00018
6000000.00012
6000000.00062
6000000.00163
6000000.00054
5999999.99761
6000000.00387
6000000.00323
5999999.99998
5999999.99812
6000000.00229
6000000.00163
5999999.99866
6000000.0049
6000000.00034
6000000.00253
5999999.99687
5999999.9976
6000000.00113
5999999.99916
5999999.9998
5999999.99702
6000000.00375
6000000.00089
5999999.99896
6000000.00028
5999999.99845
6000000.00305
5999999.99843
6000000.00171
5999999.99503
6000000.00583
6000000.00458
5999999.99811
6000000.00117
5999999.99337
5999999.99268
6000000.00335
6000000.00254
6000000.00473
5999999.99835
5999999.9956
6000000.00429
5999999.99632
5999999.99871
5999999.99887
5999999.99831
6000000.00095
5999999.99932
6000000.0002
5999999.99974
5999999.99952
6000000.0003
5999999.99792
6000000.00176
5999999.99964
5999999.99909
6000000.00214
5999999.99827
6000000.00117
5999999.99632
6000000.00025
5999999.99998
5999999.99964
5999999.99841
5999999.99845
6000000.00153
6000000.0015
5999999.99932
6000000.00662
6000000.0025
5999999.99464
6000000.00287
5999999.99863
6000000.00669
6000000.0049
5999999.99742
5999999.99585
5999999.9988
6000000.00647
6000000.00195
5999999.99728
5999999.99632
5999999.99532
6000000.00289
5999999.99688
5999999.9949
5999999.9982
5999999.99472
6000000.00408
5999999.99731
5999999.99694
5999999.99871
6000000.00171
5999999.99773
5999999.99762
6000000.00143
6000000.00119
5999999.99654
5999999.9976
5999999.99576
5999999.99589
5999999.99725
5999999.99839
6000000.00084
5999999.99327
5999999.99441
6000000.00157
6000000.00034
5999999.9954
5999999.99607
5999999.99506
5999999.99396
6000000.00421
5999999.99713
5999999.99222
5999999.99998
5999999.99582
6000000.00211
6000000.00526
5999999.99252
5999999.99448
5999999.99765
6000000.00543
6000000.001
5999999.99776
6000000.00326
6000000.00523
5999999.99979
6000000.00607
5999999.99623
5999999.99364
6000000.00368
6000000.00076
5999999.99941
5999999.99464
5999999.99643
6000000.00271
5999999.99603
5999999.9983
6000000.00211
5999999.99894
6000000.00295
6000000.00712
6000000.00319
5999999.9985
5999999.99524
5999999.99724
6000000.00583
6000000.00222
5999999.99563
5999999.99722
6000000.00087
6000000.00619
6000000.00097
5999999.99895
5999999.99975
6000000.0016
5999999.99857
5999999.99906
6000000.00344
6000000.00173
5999999.99696
6000000.00267
5999999.99667
5999999.99962
5999999.99737
6000000.00047
6000000.002
5999999.9941
5999999.99999
6000000.00112
5999999.99416
5999999.99747
6000000.00294
5999999.99812
5999999.99812
6000000.00255
5999999.99837
5999999.99656
5999999.9956
5999999.9981
5999999.99586
5999999.9993
5999999.99795
6000000.00681
5999999.99765
6000000.00038
6000000.00531
5999999.9986
6000000.00164
5999999.99999
6000000.00855
5999999.99712
6000000.00077
6000000.00634
6000000.00689
5999999.99893
5999999.99796
6000000.01003
6000000.00786
6000000.00613
5999999.99806
5999999.99796
6000000.00804
6000000.00844
6000000.00179
6000000.00673
6000000.00233
5999999.99497
6000000.00677
6000000.00788
6000000.00013
5999999.99723
6000000.00748
6000000.00259
5999999.99402
6000000.00242
6000000.0022
6000000.00911
6000000.00775
5999999.99762
6000000.00227
6000000.00716
5999999.99613
5999999.99939
6000000.00647
6000000.00925
6000000.00052
6000000.00633
6000000.0056
6000000.0049
5999999.99798
6000000.00124
6000000.0084
6000000.0095
6000000.01009
6000000.00302
6000000.00293
6000000.00638
6000000.01032
5999999.99969
6000000.00289
6000000.00578
5999999.99657
6000000.00579
6000000.00522
6000000.00986
6000000.00419
6000000.00741
6000000.00575
5999999.99354
6000000.00685
6000000.00218
5999999.99849
6000000.00874
5999999.99876
5999999.99981
5999999.99862
6000000.00043
5999999.99832
5999999.99961
5999999.99891
5999999.99948
5999999.99924
5999999.99951
5999999.99722
5999999.99773
5999999.99955
5999999.99815
6000000.00022
5999999.99821
5999999.99874
5999999.99824
6000000.00013
5999999.99795
5999999.99742
5999999.99852
5999999.99968
5999999.99857
5999999.99865
5999999.99956
5999999.99749
5999999.99847
5999999.9993
5999999.99573
5999999.99836
6000000.0002
5999999.99914
5999999.99665
5999999.9994
5999999.99748
5999999.99989
5999999.99893
5999999.9987
5999999.99678
5999999.99904
6000000.00005
5999999.99783
5999999.99942
5999999.9996
5999999.9987
5999999.99884
5999999.99917
5999999.99664
5999999.99684
5999999.99938
5999999.99992
6000000.00021
6000000.00065
5999999.99827
5999999.99898
5999999.9979
5999999.99828
5999999.99832
5999999.99872
5999999.99959
6000000.00041
6000000.00207
5999999.99834
5999999.99938
5999999.99941
5999999.99984
5999999.99967
6000000.00065
5999999.99978
5999999.99953
6000000.00034
5999999.9997
5999999.99977
5999999.99971
5999999.99974
6000000.00051
6000000.00008
5999999.99978
5999999.99957
6000000.00027
6000000.00037
5999999.99975
6000000.00035
5999999.99988
6000000.00038
5999999.99991
5999999.99985
6000000.0002
5999999.99997
6000000.00042
5999999.99992
6000000.00003
5999999.99954
6000000.0003
6000000.00044
6000000.00026
6000000.00053
5999999.99998
6000000.00054
6000000.00051
5999999.99978
6000000.00016
5999999.99988
6000000.0003
6000000.00008
5999999.99973
6000000.00065
6000000.00021
6000000.00048
6000000.00029
5999999.99962
5999999.9998
5999999.99971
6000000.00018
6000000.0001
6000000.00038
6000000.00044
5999999.99968
6000000.00004
6000000.00023
6000000.00004
6000000.00031
6000000.00015
6000000.00026
6000000.00043
5999999.99972
6000000.00052
6000000.00071
6000000.00099
6000000.00091
6000000.00109
6000000.00057
6000000.001
6000000.00086
6000000.00118
6000000.00079
6000000.00077
6000000.00083
6000000.00087
6000000.00084
6000000.0008
6000000.00089
6000000.00099
6000000.00076
6000000.00091
6000000.0011
6000000.00088
6000000.00106
6000000.00115
6000000.00071
6000000.00102
6000000.00096
6000000.00088
6000000.0007
6000000.00055
6000000.00099
6000000.00086
6000000.00088
6000000.00089
6000000.00087
6000000.00115
6000000.00074
6000000.00092
6000000.0007
6000000.00082
6000000.00061
6000000.00085
6000000.00101
6000000.00103
6000000.00096
6000000.00091
6000000.00089
6000000.00093
6000000.0008
6000000.001
6000000.00117
6000000.00122
6000000.00074
6000000.00086
6000000.0008
6000000.00096
6000000.00093
6000000.00093
6000000.00097
6000000.00098
6000000.00095
6000000.00098
6000000.0009
6000000.0012
6000000.00137
6000000.00086
5999999.99901
5999999.99873
5999999.99881
5999999.99899
5999999.99878
5999999.99919
5999999.99884
5999999.99878
5999999.99872
5999999.99874
5999999.99886
5999999.99903
5999999.99902
5999999.99885
5999999.99861
5999999.99878
5999999.99877
5999999.99901
5999999.99889
5999999.99904
5999999.99878
5999999.99876
5999999.99918
5999999.99897
5999999.99877
5999999.99891
5999999.99935
5999999.99875
5999999.99895
5999999.99908
5999999.999
5999999.9994
5999999.99909
5999999.99909
5999999.99888
5999999.9989
5999999.99915
5999999.99869
5999999.99864
5999999.9987
5999999.99907
5999999.99908
5999999.99885
5999999.999
5999999.99895
5999999.99897
5999999.99928
5999999.99905
5999999.99883
5999999.99898
5999999.99888
5999999.99868
5999999.99884
5999999.99865
5999999.99892
5999999.99888
5999999.99896
5999999.99898
5999999.99889
5999999.99889
5999999.99882
5999999.99903
5999999.99882
5999999.99888
5999999.99949
5999999.99927
5999999.99951
5999999.99976
5999999.99965