/*--------------------------------*- C++ -*----------------------------------*\
  =========                 |
  \\      /  F ield         | OpenFOAM: The Open Source CFD Toolbox
   \\    /   O peration     | Website:  https://openfoam.org
    \\  /    A nd           | Version:  6
     \\/     M anipulation  |
\*---------------------------------------------------------------------------*/
FoamFile
{
    version     2.0;
    format      ascii;
    class       volVectorField;
    location    "4.89e-05";
    object      U;
}
// * * * * * * * * * * * * * * * * * * * * * * * * * * * * * * * * * * * * * //

dimensions      [0 1 -1 0 0 0 0];

internalField   nonuniform List<vector> 
8192
(
(-88.322 0 -2.8672028202e-10)
(-88.3219999996 0 -8.93116074735e-11)
(-88.3220000002 0 -7.13335232518e-11)
(-88.3220000004 0 -2.95286176938e-10)
(-88.3219999995 0 -6.52345428445e-11)
(-88.3219999997 0 4.59197717681e-13)
(-88.3220000003 0 -2.33850974274e-12)
(-88.322 0 1.261428853e-10)
(-88.322 0 -2.77985890245e-10)
(-88.322 0 -5.89311342452e-10)
(-88.3219999999 0 -7.42398947048e-10)
(-88.322 0 3.77164857852e-10)
(-88.3220000002 0 6.73995741322e-10)
(-88.3220000001 0 -7.81649580853e-10)
(-88.3219999998 0 -6.33444977979e-10)
(-88.3219999999 0 3.75409713214e-10)
(-88.3219999998 0 3.29382434898e-10)
(-88.3219999999 0 6.98665367431e-10)
(-88.3220000002 0 -4.29185180753e-10)
(-88.3219999999 0 -5.96095810016e-10)
(-88.3219999996 0 2.63056882162e-10)
(-88.3220000004 0 3.9415013236e-10)
(-88.3220000004 0 -6.40321954008e-10)
(-88.3219999998 0 -5.86204097819e-10)
(-88.322 0 1.83308396045e-10)
(-88.3219999998 0 1.94456283186e-10)
(-88.3219999999 0 2.44254611925e-10)
(-88.3219999999 0 2.04391811101e-10)
(-88.3220000002 0 3.27109517558e-10)
(-88.3220000002 0 -1.70309201526e-10)
(-88.322 0 2.27212519281e-10)
(-88.3219999996 0 -6.72034895791e-11)
(-88.3219999989 0 1.32831412006e-10)
(-88.322000002 0 5.64739814512e-10)
(-88.3220000028 0 -8.88382660068e-10)
(-88.3219999987 0 -6.49316384253e-10)
(-88.3219999995 0 -1.0261293558e-11)
(-88.3219999996 0 -5.79074996208e-10)
(-88.3219999985 0 1.69015726293e-10)
(-88.3220000006 0 1.86273297994e-10)
(-88.3220000001 0 -6.80570262714e-11)
(-88.3219999998 0 7.13572768761e-11)
(-88.3220000002 0 -1.51511176385e-11)
(-88.322 0 -1.54805387785e-11)
(-88.322 0 -6.05620148899e-11)
(-88.322 0 -4.01593817742e-11)
(-88.322 0 -2.09008132631e-11)
(-88.322 0 -1.985337218e-11)
(-88.3220000001 0 3.21267665101e-11)
(-88.3219999998 0 -1.02722672277e-10)
(-88.3219999999 0 1.40276250616e-10)
(-88.3220000006 0 -7.08091497851e-11)
(-88.3219999994 0 -2.20406392455e-10)
(-88.3219999992 0 3.64238632595e-10)
(-88.3220000012 0 2.00158238583e-10)
(-88.3220000007 0 -2.04900817631e-10)
(-88.322 0 -2.85988853258e-11)
(-88.3219999998 0 -1.81214478164e-10)
(-88.3220000002 0 -4.57335117471e-11)
(-88.3219999991 0 -3.21147558854e-10)
(-88.3219999983 0 3.53459362619e-10)
(-88.3219999998 0 4.03821921867e-10)
(-88.322000001 0 3.66777403317e-10)
(-88.3220000014 0 -4.36485579209e-11)
(-88.3220000001 0 -3.53592177609e-10)
(-88.3219999998 0 -9.36174266977e-11)
(-88.3220000002 0 1.41852664999e-10)
(-88.3219999996 0 1.8438794046e-11)
(-88.322 0 2.75989168737e-10)
(-88.3220000002 0 -1.2261082291e-10)
(-88.3219999994 0 5.72656590655e-11)
(-88.3220000006 0 3.86824613739e-12)
(-88.3220000014 0 -9.27300341537e-12)
(-88.3220000008 0 -6.62403537576e-11)
(-88.3219999982 0 7.36588965692e-11)
(-88.3219999971 0 -2.58505868206e-10)
(-88.3220000021 0 -2.61229016574e-11)
(-88.3220000025 0 -1.92619708062e-10)
(-88.3219999979 0 -3.27740666168e-10)
(-88.3219999982 0 3.25026237116e-10)
(-88.3219999996 0 2.47517962894e-10)
(-88.3220000017 0 1.51379030777e-10)
(-88.3220000024 0 -3.53171073409e-10)
(-88.3219999988 0 -2.00656054669e-10)
(-88.3219999984 0 -6.54330121592e-11)
(-88.3220000014 0 -2.54493255119e-11)
(-88.3220000017 0 2.16041967836e-10)
(-88.3219999986 0 -7.04208290316e-11)
(-88.3219999985 0 4.59446587269e-10)
(-88.322 0 -1.89182255763e-10)
(-88.3220000001 0 3.13874729575e-10)
(-88.3219999999 0 3.05815787847e-10)
(-88.3220000006 0 -8.44260127753e-11)
(-88.322 0 1.6300036511e-12)
(-88.3219999998 0 8.58633471264e-11)
(-88.3220000005 0 2.79590850513e-11)
(-88.3219999998 0 -2.48234939511e-10)
(-88.3220000003 0 -4.77825808923e-10)
(-88.322 0 5.91010877316e-10)
(-88.3219999995 0 6.67501950236e-10)
(-88.3220000002 0 8.76346515461e-12)
(-88.322 0 3.12318001184e-10)
(-88.322 0 -1.6700580382e-10)
(-88.322 0 -2.37982988552e-10)
(-88.322 0 1.7790064918e-10)
(-88.322 0 -9.90965613691e-11)
(-88.322 0 8.16596954071e-11)
(-88.322 0 -2.16403660378e-10)
(-88.322 0 -4.03770088602e-10)
(-88.322 0 -3.49352606167e-10)
(-88.322 0 -3.39043977837e-10)
(-88.322 0 -4.21676183185e-10)
(-88.322 0 -3.85732270521e-10)
(-88.322 0 -7.7560758627e-11)
(-88.322 0 3.13977732926e-10)
(-88.3220000001 0 -9.87063717958e-11)
(-88.3219999998 0 6.33246622707e-11)
(-88.322 0 -1.13524797646e-10)
(-88.3220000001 0 -3.0176456222e-10)
(-88.3219999999 0 4.18861431074e-10)
(-88.322 0 -1.89917469779e-10)
(-88.3220000001 0 -1.5520971118e-10)
(-88.322 0 -3.82560245056e-10)
(-88.3219999999 0 9.41835787778e-10)
(-88.322 0 3.54833153863e-10)
(-88.3220000001 0 -8.22937065244e-10)
(-88.3220000002 0 -1.13059511003e-09)
(-88.322 0 -4.57043173532e-10)
(-88.3219999993 0 8.39876576569e-11)
(-88.3219999987 0 1.16931131519e-10)
(-88.322 0 -3.55043765668e-11)
(-88.3220000001 0 2.12441065843e-10)
(-88.3219999999 0 -1.75404933791e-10)
(-88.3220000001 0 1.58723917632e-10)
(-88.322 0 -4.95205631202e-11)
(-88.322 0 -1.19030354758e-10)
(-88.3220000002 0 2.46631968413e-10)
(-88.3219999998 0 5.47946991014e-10)
(-88.3220000003 0 7.02326911499e-10)
(-88.3220000002 0 -2.57261838863e-10)
(-88.322 0 -5.7012904302e-10)
(-88.3220000006 0 5.49581598541e-10)
(-88.3219999988 0 5.68591741952e-10)
(-88.3219999987 0 -3.98398982236e-10)
(-88.3220000002 0 -3.35076408405e-10)
(-88.322000001 0 -6.23498424483e-10)
(-88.3220000009 0 4.63464685435e-10)
(-88.3219999994 0 5.50530186992e-10)
(-88.3219999993 0 -2.21004457644e-10)
(-88.3219999998 0 -2.11430011297e-10)
(-88.3220000004 0 6.0465349919e-10)
(-88.3219999993 0 5.82779186582e-10)
(-88.3220000002 0 -9.66038932462e-11)
(-88.3220000001 0 -1.79824475104e-10)
(-88.3219999989 0 -9.87963625608e-11)
(-88.3220000008 0 1.11295260453e-10)
(-88.3220000008 0 -1.01027502474e-10)
(-88.3219999999 0 6.65706080158e-11)
(-88.3219999999 0 8.52031838469e-11)
(-88.3220000004 0 -1.48494915033e-12)
(-88.322 0 -4.95106056669e-10)
(-88.322 0 4.69822693852e-10)
(-88.3220000002 0 6.64753964651e-10)
(-88.322 0 -4.4680415865e-10)
(-88.3220000003 0 -7.37930797199e-10)
(-88.322 0 8.66824684781e-10)
(-88.3219999997 0 4.36128658428e-10)
(-88.3219999999 0 -3.67002707868e-10)
(-88.322 0 -4.67985152668e-10)
(-88.322 0 2.11956502465e-10)
(-88.3220000005 0 -2.95947015725e-10)
(-88.3220000011 0 -7.02176364302e-11)
(-88.3220000003 0 -3.72341318431e-10)
(-88.3219999998 0 6.32707986226e-11)
(-88.3220000001 0 -6.42683458405e-10)
(-88.3219999999 0 -6.0449751443e-10)
(-88.3219999994 0 5.44412822873e-10)
(-88.3219999985 0 2.60494379271e-11)
(-88.322 0 -4.37756803233e-10)
(-88.3220000011 0 1.87706058765e-10)
(-88.3219999994 0 -4.65380349839e-10)
(-88.3219999999 0 4.34072203155e-10)
(-88.322 0 9.07693965724e-11)
(-88.3220000004 0 -3.61089595856e-10)
(-88.3220000012 0 -4.01166808512e-10)
(-88.3220000003 0 -4.27310174234e-10)
(-88.3219999981 0 -1.70766907462e-10)
(-88.3219999977 0 -2.10883236821e-10)
(-88.322000002 0 -1.6691104846e-10)
(-88.3220000028 0 8.88956125329e-11)
(-88.3220000002 0 6.29600832786e-11)
(-88.3219999999 0 8.70421524589e-11)
(-88.322 0 6.6494710073e-10)
(-88.3220000001 0 1.99586951043e-10)
(-88.322 0 -7.20195625625e-11)
(-88.322 0 1.72669995129e-10)
(-88.322 0 -2.12035231846e-10)
(-88.322 0 4.46556711099e-11)
(-88.322 0 1.62224644975e-11)
(-88.322 0 3.98738413673e-11)
(-88.322 0 3.67841911821e-11)
(-88.322 0 1.01579979389e-10)
(-88.3219999998 0 -3.87375087371e-11)
(-88.3219999997 0 1.75365728168e-10)
(-88.3220000005 0 -1.89560098943e-11)
(-88.3220000002 0 4.35634261182e-10)
(-88.3219999998 0 3.67312557906e-10)
(-88.322 0 -3.16369464683e-10)
(-88.322 0 -2.36789908074e-10)
(-88.322 0 -3.13252203732e-10)
(-88.322 0 5.38190186955e-10)
(-88.322 0 4.71695897701e-10)
(-88.322 0 -5.33665994218e-10)
(-88.3219999999 0 -5.05227642773e-10)
(-88.322 0 3.33602183073e-10)
(-88.322 0 5.40014963495e-10)
(-88.322 0 -2.23208351221e-10)
(-88.322 0 6.00001094585e-10)
(-88.3219999995 0 -1.95950711373e-10)
(-88.3219999999 0 5.75644972601e-11)
(-88.3220000007 0 -1.02788603703e-10)
(-88.3219999996 0 -2.95062361722e-10)
(-88.3219999999 0 1.10818166713e-10)
(-88.3220000016 0 -9.60875107016e-11)
(-88.3219999988 0 6.79517256694e-12)
(-88.3219999981 0 -9.66245153874e-11)
(-88.3220000018 0 4.69308799464e-11)
(-88.3220000023 0 9.92886576287e-11)
(-88.3219999976 0 -8.11842254549e-11)
(-88.3219999977 0 3.83956191526e-10)
(-88.3220000024 0 -3.27174752586e-11)
(-88.3220000017 0 4.37310241909e-11)
(-88.3219999988 0 -8.71130529411e-11)
(-88.3219999998 0 -5.28823783905e-13)
(-88.3220000005 0 -1.01585522996e-10)
(-88.3220000002 0 2.18297197968e-10)
(-88.3219999997 0 4.34510930976e-10)
(-88.3220000005 0 3.4736806224e-10)
(-88.3220000013 0 3.67127485916e-10)
(-88.3219999976 0 2.87774618382e-10)
(-88.3219999989 0 5.47685270098e-10)
(-88.3220000019 0 1.97066069945e-10)
(-88.3219999998 0 -3.80444988781e-10)
(-88.3220000002 0 1.0988582734e-10)
(-88.3219999992 0 -2.22627124426e-10)
(-88.3219999989 0 2.36698238654e-10)
(-88.3220000016 0 6.03354548856e-10)
(-88.3220000009 0 -5.63455020588e-10)
(-88.3220000001 0 -1.93066324444e-10)
(-88.3219999997 0 4.46229881523e-10)
(-88.3219999996 0 4.4070431821e-11)
(-88.3219999998 0 -5.02261192959e-10)
(-88.3219999995 0 -1.12040823527e-09)
(-88.3219999998 0 8.60680003279e-10)
(-88.3220000001 0 1.03212682738e-09)
(-88.322 0 8.02776993541e-10)
(-88.3220000005 0 -3.22440227966e-10)
(-88.3220000001 0 -1.41766372921e-10)
(-88.322 0 2.69474113128e-10)
(-88.3220000004 0 -4.27178456382e-11)
(-88.322 0 -6.55705467767e-11)
(-88.3219999996 0 -8.1701815905e-12)
(-88.322 0 -4.91966659214e-12)
(-88.322 0 4.14174914956e-11)
(-88.322 0 1.65737730756e-11)
(-88.322 0 -9.81770601294e-12)
(-88.3220000001 0 7.63273692614e-11)
(-88.3220000002 0 -2.92412931046e-10)
(-88.3219999996 0 -3.06292980952e-10)
(-88.3219999998 0 5.1170472945e-11)
(-88.3220000003 0 -2.86373241687e-11)
(-88.322 0 3.84005854027e-11)
(-88.3220000002 0 1.7513883821e-10)
(-88.3219999994 0 1.66659133091e-10)
(-88.3219999994 0 -2.85715474348e-11)
(-88.3220000016 0 -4.29488952537e-12)
(-88.3220000012 0 3.56424369861e-11)
(-88.321999998 0 3.75112503615e-11)
(-88.3219999984 0 9.18986822398e-11)
(-88.3220000005 0 -1.28088790897e-10)
(-88.3220000001 0 1.46173006752e-10)
(-88.322 0 5.71909000228e-12)
(-88.3219999999 0 2.76138232343e-10)
(-88.3220000006 0 2.90699792391e-10)
(-88.3220000014 0 3.88686947544e-10)
(-88.3219999994 0 -3.64490265774e-11)
(-88.3219999995 0 1.46613670577e-10)
(-88.3220000005 0 4.18740064425e-10)
(-88.3220000001 0 -3.67034616229e-11)
(-88.322 0 -5.62905150198e-10)
(-88.3219999998 0 -7.8491157987e-10)
(-88.3220000002 0 2.3291106364e-10)
(-88.3219999997 0 9.22586504364e-10)
(-88.3219999999 0 -1.12843425768e-09)
(-88.3220000004 0 -2.8956122604e-10)
(-88.3219999999 0 1.44648350923e-10)
(-88.322 0 4.07552760793e-10)
(-88.322 0 -1.77213802911e-10)
(-88.322 0 2.49772443919e-10)
(-88.322 0 7.9980183201e-11)
(-88.322 0 3.39947681278e-10)
(-88.322 0 -4.78593598253e-11)
(-88.3220000002 0 6.38064646839e-10)
(-88.3219999997 0 5.15687697247e-10)
(-88.3219999996 0 -4.69421909936e-10)
(-88.3220000004 0 -1.45270771569e-10)
(-88.3220000001 0 3.25057711142e-10)
(-88.3220000008 0 1.12605270437e-11)
(-88.3219999992 0 3.72708114104e-10)
(-88.3219999983 0 -4.56562713722e-10)
(-88.3220000016 0 -8.54080975408e-11)
(-88.3220000019 0 -2.5022037169e-10)
(-88.3219999991 0 2.00246129618e-10)
(-88.3219999998 0 1.12524451299e-10)
(-88.3219999998 0 -2.99200157385e-10)
(-88.3220000001 0 8.21980060278e-10)
(-88.3219999992 0 7.07432365382e-10)
(-88.3219999985 0 4.17687286179e-10)
(-88.3220000002 0 1.68757356288e-10)
(-88.3220000005 0 -3.16624384673e-11)
(-88.3220000002 0 -1.26721427547e-10)
(-88.3219999989 0 -2.43505982315e-10)
(-88.322 0 4.52580219035e-10)
(-88.3220000006 0 6.565037403e-10)
(-88.3219999999 0 8.43915647843e-12)
(-88.3219999999 0 4.39747074529e-10)
(-88.322 0 3.22838607672e-10)
(-88.322 0 -4.63091832959e-10)
(-88.3220000001 0 2.36960595746e-11)
(-88.3219999998 0 9.77004932272e-11)
(-88.3220000003 0 -5.79376703171e-11)
(-88.3220000004 0 2.15705987445e-10)
(-88.3219999998 0 1.99454452485e-10)
(-88.3219999998 0 -5.81060582697e-10)
(-88.3219999998 0 5.184252382e-10)
(-88.3219999996 0 4.25697726169e-10)
(-88.3219999997 0 5.6745351933e-10)
(-88.3220000004 0 1.18935021655e-10)
(-88.3220000004 0 -7.57061225074e-10)
(-88.3219999999 0 -2.62420662296e-10)
(-88.3219999998 0 9.39610009961e-10)
(-88.3219999998 0 1.1340035681e-09)
(-88.3220000004 0 -6.7293429514e-10)
(-88.3219999999 0 -6.49934289595e-10)
(-88.3219999998 0 -4.82653000736e-10)
(-88.3219999998 0 -1.11085834434e-10)
(-88.321999999 0 1.21404064311e-10)
(-88.3219999997 0 -5.01155203427e-10)
(-88.3220000014 0 5.66416597315e-10)
(-88.3220000001 0 7.98597163261e-10)
(-88.321999999 0 -1.4784415363e-10)
(-88.3220000021 0 -3.70927844213e-10)
(-88.3220000008 0 1.03448900685e-10)
(-88.3219999994 0 1.8986868961e-10)
(-88.3220000002 0 1.25143640146e-10)
(-88.3219999989 0 -1.39437818147e-10)
(-88.3220000004 0 -6.562603601e-12)
(-88.322 0 -5.90806723068e-11)
(-88.3219999999 0 4.56038826163e-12)
(-88.3220000004 0 6.96338888298e-11)
(-88.3219999995 0 5.25668530117e-11)
(-88.322 0 -2.90195514229e-11)
(-88.322 0 2.26009634197e-11)
(-88.322 0 1.23809106654e-11)
(-88.322 0 1.00324424723e-11)
(-88.322 0 8.9709865034e-12)
(-88.3220000002 0 -9.27474421052e-11)
(-88.3219999998 0 3.18731189545e-10)
(-88.3220000002 0 -2.36863673567e-10)
(-88.3220000002 0 -8.02614807701e-11)
(-88.3219999995 0 -2.40285342855e-11)
(-88.3220000002 0 1.37523973068e-10)
(-88.3220000001 0 3.0218261257e-10)
(-88.3219999998 0 -4.32830992425e-10)
(-88.3220000012 0 -5.00211306647e-10)
(-88.3220000001 0 3.04825257115e-10)
(-88.3219999994 0 3.87145323751e-10)
(-88.3220000007 0 5.40866743339e-11)
(-88.3219999982 0 4.26325279508e-10)
(-88.3219999978 0 -9.59328347064e-11)
(-88.3220000002 0 5.14864535644e-10)
(-88.3220000008 0 -2.50602323716e-10)
(-88.322000001 0 -8.03888280031e-11)
(-88.322000001 0 -2.67075264511e-10)
(-88.3220000005 0 5.18933217076e-10)
(-88.3219999989 0 2.1410707297e-11)
(-88.3219999983 0 -3.28107476244e-10)
(-88.3220000013 0 5.73796168621e-11)
(-88.3220000004 0 3.50570052734e-11)
(-88.3219999989 0 5.50788267e-11)
(-88.3220000019 0 -1.006760552e-10)
(-88.3220000006 0 6.23112996682e-11)
(-88.321999999 0 -1.89576042776e-10)
(-88.3220000002 0 -1.71745455102e-10)
(-88.3219999998 0 4.07897682297e-10)
(-88.3219999996 0 -3.82992576956e-10)
(-88.3220000013 0 -3.17849654785e-10)
(-88.3219999992 0 -5.99501472847e-11)
(-88.3219999983 0 -1.2277359832e-10)
(-88.3219999999 0 1.89208914758e-11)
(-88.3220000008 0 -2.85974221861e-10)
(-88.3220000021 0 -1.42204999495e-10)
(-88.322 0 4.52884040972e-11)
(-88.3219999982 0 -4.21906306905e-12)
(-88.3219999984 0 -2.79877054571e-12)
(-88.3220000012 0 -4.06777533912e-11)
(-88.322000002 0 2.92304115447e-12)
(-88.322 0 -4.00640744536e-11)
(-88.321999999 0 -7.81705914312e-11)
(-88.3219999989 0 5.00179149492e-11)
(-88.3220000007 0 -3.57860870437e-10)
(-88.3219999996 0 -3.72579756009e-10)
(-88.3219999988 0 -6.19784581467e-10)
(-88.3220000009 0 3.44608201394e-10)
(-88.3220000019 0 -4.80369991047e-10)
(-88.322 0 -3.85742983989e-10)
(-88.3219999989 0 8.51405046539e-10)
(-88.3219999999 0 2.11927837834e-10)
(-88.3220000005 0 -1.19926140482e-10)
(-88.3220000005 0 -4.97412859407e-10)
(-88.3219999996 0 -1.45449417043e-10)
(-88.3219999999 0 6.47953793075e-10)
(-88.322 0 -2.05881684808e-10)
(-88.3219999999 0 -7.59309641492e-11)
(-88.3220000001 0 5.97184911289e-11)
(-88.322 0 9.7222381003e-11)
(-88.322 0 -2.25131036901e-10)
(-88.322 0 7.32528551039e-11)
(-88.322 0 4.25174778618e-11)
(-88.3220000001 0 1.30164181378e-11)
(-88.3219999996 0 -9.23440028267e-12)
(-88.322 0 -4.87377426788e-11)
(-88.3220000005 0 3.37569317223e-11)
(-88.3219999999 0 -4.61124662833e-11)
(-88.3219999997 0 1.3513696074e-10)
(-88.3220000002 0 -5.09829959014e-11)
(-88.3220000004 0 6.29180188691e-11)
(-88.3219999998 0 -6.6789378422e-11)
(-88.3220000001 0 4.93926691012e-11)
(-88.3220000002 0 3.19926673021e-10)
(-88.3219999997 0 1.40468065731e-12)
(-88.3219999998 0 1.04321507617e-10)
(-88.3220000002 0 4.88952956021e-10)
(-88.3219999999 0 -5.38442094986e-10)
(-88.3219999996 0 -5.20912141592e-10)
(-88.3219999997 0 3.27947048596e-11)
(-88.3220000002 0 2.77525865056e-10)
(-88.3220000006 0 -1.01649575388e-10)
(-88.322 0 1.0278701082e-10)
(-88.3220000006 0 2.35151361537e-10)
(-88.3219999998 0 -4.21279244741e-10)
(-88.3219999998 0 -6.8673474284e-10)
(-88.3219999999 0 1.86009872642e-10)
(-88.3220000002 0 -4.44348555395e-10)
(-88.3219999999 0 -3.59407349343e-10)
(-88.3220000001 0 4.58181691133e-10)
(-88.3220000005 0 -4.38067462017e-11)
(-88.3219999985 0 -1.2294012549e-10)
(-88.3220000008 0 9.2208292242e-11)
(-88.3220000019 0 -1.99137698602e-10)
(-88.3219999992 0 -1.03529815993e-10)
(-88.3219999993 0 4.06189676992e-10)
(-88.3219999996 0 -5.16674076415e-10)
(-88.322 0 -3.64633509511e-10)
(-88.322 0 -5.51694714065e-10)
(-88.3219999998 0 1.97352933987e-11)
(-88.3220000002 0 4.89496227997e-10)
(-88.322 0 2.39974721143e-11)
(-88.3219999999 0 -3.9400315484e-10)
(-88.3219999998 0 -7.55468539124e-10)
(-88.3220000004 0 2.25239418911e-10)
(-88.322 0 1.91384412533e-10)
(-88.3219999996 0 2.64204489538e-10)
(-88.3220000004 0 -2.74238009304e-10)
(-88.3219999998 0 -3.11452106619e-10)
(-88.3220000002 0 7.89738189141e-11)
(-88.322 0 -5.32329436929e-10)
(-88.322 0 -5.1140353634e-10)
(-88.3220000003 0 -9.15363140172e-11)
(-88.3219999994 0 4.24995255518e-10)
(-88.3219999997 0 -8.85697274846e-11)
(-88.3220000014 0 -1.05619929707e-10)
(-88.3220000017 0 -1.21829089452e-10)
(-88.3219999989 0 -5.56834861564e-11)
(-88.321999998 0 2.47033580739e-10)
(-88.3220000002 0 -5.95572900201e-11)
(-88.3220000014 0 1.04851007662e-10)
(-88.3219999999 0 -3.86326354363e-11)
(-88.3219999992 0 -2.73916583228e-11)
(-88.3220000006 0 4.85983849718e-11)
(-88.322 0 -1.43220887419e-11)
(-88.3219999995 0 -1.36315519725e-11)
(-88.3220000002 0 -5.09694938334e-11)
(-88.3220000001 0 -2.30801608417e-11)
(-88.3220000002 0 5.15376809435e-11)
(-88.3219999998 0 -2.09503480895e-10)
(-88.3220000002 0 6.51453852909e-11)
(-88.322 0 1.3501144262e-10)
(-88.3219999995 0 -1.82142163317e-10)
(-88.3220000003 0 -2.27962886545e-10)
(-88.3220000001 0 1.39937196029e-10)
(-88.3219999998 0 6.32649188706e-10)
(-88.3220000006 0 6.15007714107e-10)
(-88.3220000003 0 -2.76298354935e-10)
(-88.3219999999 0 -3.90672029877e-10)
(-88.3219999998 0 -2.67791237496e-10)
(-88.3219999995 0 -4.83085106997e-10)
(-88.3219999998 0 1.80523180261e-10)
(-88.3219999991 0 -4.58114929789e-10)
(-88.3219999992 0 3.5793213479e-10)
(-88.3220000013 0 -2.04234743209e-10)
(-88.3220000005 0 1.59659869638e-10)
(-88.3220000003 0 -3.21123070626e-10)
(-88.322 0 3.45434011677e-11)
(-88.322 0 -5.37321503414e-11)
(-88.322 0 7.55520047196e-12)
(-88.322 0 -8.03375202575e-11)
(-88.322 0 9.63355748591e-11)
(-88.322 0 4.75714740064e-11)
(-88.322 0 -1.02476994652e-10)
(-88.3220000001 0 1.8571191386e-10)
(-88.322 0 1.64114226152e-10)
(-88.322 0 -4.89153364634e-10)
(-88.322 0 5.76575868181e-10)
(-88.322 0 5.41474667991e-10)
(-88.322 0 6.5177868767e-11)
(-88.322 0 1.22469822116e-10)
(-88.322 0 -4.84857235219e-11)
(-88.322 0 9.77994966938e-11)
(-88.322 0 -1.19357398776e-11)
(-88.322 0 -1.76132319856e-12)
(-88.322 0 1.87889376339e-11)
(-88.322 0 -2.85425483906e-11)
(-88.322 0 1.50674382958e-11)
(-88.322 0 -2.25830171508e-11)
(-88.322 0 1.95823067458e-10)
(-88.322 0 -8.03486982731e-11)
(-88.322 0 -4.6792838252e-11)
(-88.322 0 1.03477633541e-10)
(-88.322 0 -2.41905129012e-11)
(-88.322 0 5.28775466118e-11)
(-88.322 0 -2.28816950263e-10)
(-88.322 0 5.42404485242e-11)
(-88.322 0 -1.1214891834e-10)
(-88.322 0 -1.0145631231e-11)
(-88.322 0 1.89660453049e-10)
(-88.3220000004 0 -2.02087165959e-10)
(-88.3219999999 0 1.81187785011e-10)
(-88.3219999996 0 -2.1884486277e-10)
(-88.3220000001 0 -7.5514377992e-10)
(-88.322 0 1.91924780175e-10)
(-88.322 0 3.33667255412e-10)
(-88.322 0 -4.35195364555e-11)
(-88.322 0 -9.54393918661e-11)
(-88.322 0 2.29753273807e-10)
(-88.322 0 -1.06146053717e-10)
(-88.322 0 -3.85266657406e-11)
(-88.322 0 -3.25940816153e-11)
(-88.322 0 -7.16243427646e-11)
(-88.322 0 1.66763082661e-10)
(-88.3219999998 0 -1.08779212451e-11)
(-88.3220000004 0 2.26870599502e-10)
(-88.3220000004 0 -6.17385860239e-11)
(-88.3219999995 0 -8.6817845308e-11)
(-88.3219999987 0 -1.96312043421e-10)
(-88.3219999989 0 7.33461944277e-11)
(-88.3220000019 0 1.40355294462e-10)
(-88.3220000023 0 -2.39745521436e-10)
(-88.3219999996 0 -1.11679174925e-10)
(-88.322 0 -2.87931042762e-11)
(-88.3219999992 0 -1.29829575698e-10)
(-88.3219999998 0 6.7372256961e-11)
(-88.3219999993 0 6.17226771939e-11)
(-88.3219999992 0 -1.05404428284e-09)
(-88.3220000006 0 -9.33485978548e-10)
(-88.322 0 -2.43453471757e-10)
(-88.3219999996 0 1.66114902245e-10)
(-88.3220000001 0 1.25737967883e-10)
(-88.3219999999 0 -1.84047011595e-10)
(-88.3219999999 0 -6.13000474282e-11)
(-88.3219999997 0 8.82901324704e-11)
(-88.3219999999 0 6.54899731335e-11)
(-88.3220000003 0 -1.51775421118e-10)
(-88.3219999999 0 -1.73272406002e-10)
(-88.322 0 -3.25606325363e-11)
(-88.322 0 -8.72899522952e-11)
(-88.322 0 2.03692711687e-11)
(-88.3219999999 0 -3.63163534734e-11)
(-88.3220000002 0 -1.78394882136e-11)
(-88.3220000001 0 -2.27080276284e-11)
(-88.3219999998 0 -3.55145846512e-11)
(-88.322 0 -4.59421723041e-11)
(-88.322 0 -4.46184946456e-11)
(-88.322 0 -3.48633720644e-12)
(-88.322 0 5.56674789083e-11)
(-88.322 0 -1.73044491821e-10)
(-88.3219999998 0 -7.52008596788e-11)
(-88.3219999998 0 5.50719286802e-10)
(-88.322 0 3.7832690053e-10)
(-88.3220000001 0 -4.85604322895e-10)
(-88.3220000001 0 -3.58545004042e-10)
(-88.322 0 -1.04286362006e-10)
(-88.3219999998 0 7.7635732394e-11)
(-88.3220000002 0 -1.88153450947e-10)
(-88.3220000004 0 1.45825812007e-10)
(-88.322 0 -1.55749312887e-10)
(-88.3220000002 0 -4.11826843562e-10)
(-88.3219999996 0 -3.32054336496e-10)
(-88.321999999 0 3.04887480915e-10)
(-88.3220000017 0 -4.47016762062e-10)
(-88.3220000017 0 -4.81297393251e-10)
(-88.321999999 0 -4.236108225e-10)
(-88.3219999998 0 4.6496007753e-10)
(-88.3219999993 0 3.39471771066e-10)
(-88.3219999991 0 -3.83495078511e-10)
(-88.3220000003 0 -2.4312548669e-10)
(-88.322 0 5.54078263414e-10)
(-88.322 0 1.30424931892e-10)
(-88.322 0 -3.80274734981e-10)
(-88.322 0 -5.95949275218e-10)
(-88.322 0 2.40448663735e-10)
(-88.3220000002 0 -2.43326285986e-10)
(-88.3219999999 0 -1.04589906456e-10)
(-88.3219999996 0 -5.24459564521e-10)
(-88.322 0 4.22953436535e-10)
(-88.3220000002 0 -1.44657647038e-10)
(-88.322 0 7.19677395528e-11)
(-88.3220000006 0 3.33149819381e-10)
(-88.3219999998 0 -4.37429440139e-10)
(-88.3219999992 0 -1.01485755911e-09)
(-88.3220000011 0 -1.21894666067e-09)
(-88.3220000008 0 -4.58154654061e-10)
(-88.3219999995 0 1.06276220112e-09)
(-88.3219999998 0 6.08053824913e-10)
(-88.3219999992 0 -7.75437648813e-11)
(-88.3219999994 0 -7.58981717305e-10)
(-88.3220000014 0 8.00618454669e-10)
(-88.3220000012 0 -4.17755661628e-11)
(-88.3219999996 0 -1.92028766159e-10)
(-88.3219999994 0 -4.18180362778e-11)
(-88.322 0 1.09807935294e-10)
(-88.3220000007 0 4.8168452399e-11)
(-88.3220000004 0 2.92659159032e-10)
(-88.3219999995 0 -2.41309717866e-10)
(-88.3219999998 0 2.09385154173e-10)
(-88.3220000005 0 -2.78784109992e-10)
(-88.3220000004 0 2.60538668376e-10)
(-88.3219999998 0 2.97024106331e-10)
(-88.322 0 -2.44662630996e-10)
(-88.3219999998 0 -4.32633642746e-10)
(-88.322 0 -1.29941973117e-10)
(-88.3220000001 0 -4.85274818576e-10)
(-88.322 0 -4.55856679412e-10)
(-88.322 0 -1.30536498547e-10)
(-88.322 0 7.33627689798e-11)
(-88.322 0 4.69246241344e-11)
(-88.3219999999 0 1.1575759749e-10)
(-88.3219999999 0 -3.82044454842e-10)
(-88.3220000004 0 -7.6343090343e-10)
(-88.3220000002 0 3.46437402751e-10)
(-88.3219999985 0 3.34615025142e-10)
(-88.3219999991 0 7.99111202463e-10)
(-88.3220000021 0 -5.05828779694e-10)
(-88.3220000014 0 -4.98465561064e-10)
(-88.3219999992 0 3.24187869103e-10)
(-88.3219999992 0 3.09368089602e-10)
(-88.3220000001 0 3.06394149074e-10)
(-88.322 0 1.02529341301e-10)
(-88.322 0 3.56040494157e-10)
(-88.3220000011 0 1.04225311193e-10)
(-88.3220000003 0 5.14451213851e-11)
(-88.3219999986 0 9.87309392477e-11)
(-88.3220000002 0 -1.48875148977e-10)
(-88.3220000015 0 -4.01035047283e-10)
(-88.3220000004 0 5.68463075409e-10)
(-88.3219999979 0 8.51647635973e-10)
(-88.3219999981 0 5.48762830708e-10)
(-88.3220000017 0 7.74323022581e-10)
(-88.3220000011 0 -5.58372300439e-10)
(-88.3219999983 0 -5.4287233123e-11)
(-88.3219999993 0 4.19377092566e-11)
(-88.3220000019 0 -7.46987627329e-11)
(-88.3220000014 0 6.40934610515e-11)
(-88.3219999988 0 -1.13458529643e-10)
(-88.3219999993 0 5.46171524019e-11)
(-88.3220000006 0 -1.26283772803e-10)
(-88.3220000006 0 -3.18268682692e-10)
(-88.3219999988 0 2.55513512255e-10)
(-88.321999999 0 3.60993649818e-10)
(-88.3220000011 0 4.81636024603e-10)
(-88.3219999994 0 -3.53360791613e-10)
(-88.3220000005 0 -3.55906963094e-10)
(-88.3220000012 0 7.87022819041e-10)
(-88.3220000004 0 1.27002909372e-10)
(-88.3220000009 0 1.2123370277e-10)
(-88.3219999978 0 3.61694394955e-10)
(-88.3219999975 0 5.70135491813e-10)
(-88.3220000022 0 6.96628603606e-10)
(-88.3220000018 0 -2.61118713903e-10)
(-88.321999998 0 -4.44844558654e-10)
(-88.3219999978 0 -1.95392978969e-10)
(-88.3220000011 0 4.60565829988e-10)
(-88.3220000006 0 4.40240499773e-10)
(-88.3219999993 0 3.09734513523e-10)
(-88.322 0 -2.15057584234e-10)
(-88.3219999998 0 -2.27933207382e-10)
(-88.3220000004 0 1.51549235461e-10)
(-88.322 0 -2.64121611696e-11)
(-88.3219999998 0 -8.00898240131e-11)
(-88.3219999998 0 -1.32483250717e-10)
(-88.3219999992 0 1.53214464046e-10)
(-88.3220000009 0 1.24103194462e-10)
(-88.3220000015 0 4.53151682909e-11)
(-88.3219999997 0 -4.20863060577e-11)
(-88.322 0 -3.73465324239e-10)
(-88.3220000005 0 -2.32050813645e-11)
(-88.3219999995 0 -9.79658161941e-11)
(-88.321999999 0 -1.22040667803e-10)
(-88.3219999995 0 8.81752967674e-11)
(-88.3219999999 0 -1.28629013914e-10)
(-88.3220000008 0 -1.16856204046e-11)
(-88.3220000018 0 -4.24252358732e-12)
(-88.3219999987 0 -7.12962970103e-11)
(-88.3219999978 0 2.01633386983e-10)
(-88.3219999989 0 -2.86336949243e-12)
(-88.3220000016 0 -3.80395864886e-10)
(-88.3220000026 0 -2.42070588861e-10)
(-88.3219999986 0 3.38418775743e-10)
(-88.3219999984 0 4.91424207086e-10)
(-88.322 0 1.02757950844e-10)
(-88.3220000001 0 -4.75331850569e-11)
(-88.3220000001 0 1.92185866985e-10)
(-88.3220000004 0 -1.03412266308e-10)
(-88.3220000005 0 1.68107274629e-10)
(-88.3220000001 0 4.17354726595e-10)
(-88.322 0 3.28801798266e-10)
(-88.3219999999 0 -2.93747964183e-10)
(-88.3220000004 0 5.50614500539e-10)
(-88.3219999994 0 2.66525137698e-10)
(-88.3219999989 0 6.64421456065e-10)
(-88.3220000001 0 -5.20853747363e-10)
(-88.3220000015 0 -3.42446497663e-10)
(-88.3220000007 0 5.34270029265e-10)
(-88.3219999992 0 1.97529620781e-10)
(-88.322 0 -5.6772906139e-10)
(-88.3220000001 0 -1.23906720148e-10)
(-88.3220000002 0 3.6182481627e-10)
(-88.322 0 6.24331469731e-10)
(-88.322 0 -4.22045235915e-10)
(-88.3220000009 0 2.40575516966e-10)
(-88.3219999992 0 7.47176932122e-11)
(-88.3219999982 0 5.3773614112e-10)
(-88.3219999996 0 -4.5107243331e-10)
(-88.3220000017 0 2.79173229611e-11)
(-88.3220000017 0 1.67790281463e-10)
(-88.3219999983 0 -6.11386162479e-10)
(-88.3219999989 0 1.18807860637e-10)
(-88.3220000005 0 8.12724877985e-10)
(-88.3220000006 0 7.80317011976e-10)
(-88.322 0 4.96684873486e-10)
(-88.321999999 0 -4.42756971674e-10)
(-88.3220000014 0 -6.22934405312e-10)
(-88.3220000014 0 5.25848271988e-10)
(-88.3219999994 0 5.26509323806e-10)
(-88.3219999996 0 -4.31535298808e-10)
(-88.322 0 -5.38839986988e-10)
(-88.3219999999 0 1.40368703188e-10)
(-88.322 0 -1.78420597753e-10)
(-88.322 0 -4.47667480318e-11)
(-88.322 0 1.37028734707e-10)
(-88.322 0 -2.44246754052e-10)
(-88.322 0 1.81872132777e-10)
(-88.322 0 -1.35359042538e-10)
(-88.322 0 1.50750265495e-10)
(-88.322 0 -2.43696760117e-10)
(-88.322 0 -1.54712803197e-10)
(-88.3220000002 0 -2.32556543505e-10)
(-88.3220000006 0 1.73307698967e-11)
(-88.3219999999 0 3.856120348e-10)
(-88.3219999995 0 1.85938910803e-10)
(-88.3220000002 0 -1.47686621473e-10)
(-88.3219999997 0 -3.04740962108e-10)
(-88.322 0 1.60076962717e-10)
(-88.3220000002 0 2.128495074e-10)
(-88.3219999997 0 -2.635827221e-10)
(-88.322 0 4.33377775087e-10)
(-88.322 0 7.60171291704e-10)
(-88.3220000001 0 -3.22955121278e-10)
(-88.3219999997 0 -3.44262313253e-10)
(-88.3219999996 0 -8.26339565876e-10)
(-88.3220000006 0 4.14500731129e-10)
(-88.322 0 4.55037433103e-10)
(-88.3219999998 0 -3.51858621948e-10)
(-88.3220000002 0 -3.16854957249e-10)
(-88.322 0 -3.60826711267e-10)
(-88.322 0 -2.34877210765e-10)
(-88.322 0 -2.4013837004e-10)
(-88.322 0 -1.19880082014e-10)
(-88.322 0 1.26801969968e-10)
(-88.322 0 1.32836688759e-10)
(-88.3219999997 0 -1.56542228687e-10)
(-88.3220000003 0 3.84997479085e-10)
(-88.3220000003 0 -3.16484081803e-10)
(-88.3219999995 0 -7.618927079e-10)
(-88.322 0 -5.95860461581e-10)
(-88.3219999997 0 -1.56977367631e-10)
(-88.3220000002 0 -3.89177272921e-11)
(-88.3220000005 0 -4.87647146626e-10)
(-88.3219999999 0 2.37850450191e-10)
(-88.322 0 3.79139830525e-10)
(-88.322 0 -3.86603423302e-10)
(-88.3220000004 0 7.50063723694e-11)
(-88.3220000002 0 -5.36413799053e-10)
(-88.3219999997 0 -4.69178467726e-10)
(-88.322 0 1.60894298238e-10)
(-88.3219999999 0 -8.44960558793e-10)
(-88.322 0 -5.15605850593e-10)
(-88.3219999999 0 -5.15445203044e-10)
(-88.3220000007 0 2.31091268866e-10)
(-88.3220000007 0 2.96395543541e-10)
(-88.3219999985 0 -6.09509879936e-10)
(-88.3219999991 0 -1.3719031069e-10)
(-88.3220000015 0 -5.1567594497e-10)
(-88.3220000003 0 2.74213881652e-10)