/*--------------------------------*- C++ -*----------------------------------*\
  =========                 |
  \\      /  F ield         | OpenFOAM: The Open Source CFD Toolbox
   \\    /   O peration     | Website:  https://openfoam.org
    \\  /    A nd           | Version:  6
     \\/     M anipulation  |
\*---------------------------------------------------------------------------*/
FoamFile
{
    version     2.0;
    format      ascii;
    class       volVectorField;
    location    "1.9e-05";
    object      U;
}
// * * * * * * * * * * * * * * * * * * * * * * * * * * * * * * * * * * * * * //

dimensions      [0 1 -1 0 0 0 0];

internalField   nonuniform List<vector> 
8192
(
(-88.3220000001 0 -6.05109964864e-11)
(-88.3219999999 0 -1.36959902991e-11)
(-88.322 0 -1.35429201276e-11)
(-88.322 0 -1.93578314915e-11)
(-88.322 0 2.26273315677e-12)
(-88.322 0 -2.45754669346e-12)
(-88.322 0 -8.05869011788e-13)
(-88.322 0 -1.9198871067e-12)
(-88.322 0 -1.62285007859e-11)
(-88.322 0 -7.22047494279e-11)
(-88.322 0 -8.59069532903e-11)
(-88.322 0 2.78357218005e-11)
(-88.322 0 4.45307114434e-11)
(-88.322 0 -5.92425329274e-11)
(-88.322 0 -1.39556624094e-10)
(-88.322 0 3.3415303826e-11)
(-88.322 0 -2.89015908249e-11)
(-88.322 0 7.3888343381e-11)
(-88.322 0 -9.34588160244e-11)
(-88.322 0 -6.73269551111e-11)
(-88.322 0 6.90478107786e-11)
(-88.322 0 7.98086090594e-11)
(-88.322 0 -1.82311347539e-11)
(-88.322 0 -2.16605784532e-11)
(-88.322 0 5.53101159756e-12)
(-88.322 0 2.67084528713e-12)
(-88.322 0 9.51325956808e-12)
(-88.322 0 1.12002297439e-11)
(-88.322 0 3.6621753571e-12)
(-88.322 0 -7.08426120374e-12)
(-88.322 0 1.80455704735e-11)
(-88.322 0 4.53058329377e-12)
(-88.3219999999 0 -2.27345274153e-11)
(-88.3220000001 0 8.11133150016e-11)
(-88.3220000003 0 -5.60815775507e-11)
(-88.3219999999 0 -6.29801162063e-11)
(-88.322 0 1.34431354845e-11)
(-88.322 0 -8.21685817777e-11)
(-88.3219999999 0 3.13517732673e-11)
(-88.3220000001 0 -4.39917256817e-12)
(-88.322 0 1.05408411485e-11)
(-88.322 0 -1.21566299619e-12)
(-88.322 0 -7.30327672737e-12)
(-88.322 0 -2.84610607086e-12)
(-88.322 0 -1.58874266388e-11)
(-88.322 0 -5.04422005047e-12)
(-88.322 0 -1.76033482467e-12)
(-88.322 0 -3.09315202472e-13)
(-88.322 0 2.55227645903e-12)
(-88.322 0 -7.92413850116e-12)
(-88.322 0 -1.60758636396e-12)
(-88.322 0 -1.03522794719e-11)
(-88.322 0 -3.08524644504e-12)
(-88.322 0 2.22475897387e-11)
(-88.3220000001 0 1.50155473493e-11)
(-88.322 0 -2.78752793388e-11)
(-88.322 0 6.01993759564e-12)
(-88.322 0 -1.57880285379e-11)
(-88.322 0 -6.73536860893e-12)
(-88.3219999999 0 -3.50506963918e-12)
(-88.3219999998 0 3.48335900558e-11)
(-88.3219999999 0 7.541507504e-11)
(-88.3220000001 0 7.31357399495e-11)
(-88.3220000003 0 4.71464320212e-11)
(-88.322 0 2.50804173358e-11)
(-88.322 0 4.36254806515e-12)
(-88.322 0 8.39889463899e-12)
(-88.322 0 7.56357539751e-13)
(-88.322 0 3.12714384372e-14)
(-88.322 0 -3.68064451203e-13)
(-88.322 0 -1.892985346e-13)
(-88.322 0 5.07949278471e-14)
(-88.3220000001 0 -5.13629511379e-13)
(-88.3220000001 0 -8.13176090801e-12)
(-88.3219999998 0 -8.88894488415e-13)
(-88.3219999997 0 -1.55642160512e-11)
(-88.3220000002 0 -7.7177773437e-13)
(-88.3220000004 0 -1.88889465994e-12)
(-88.3219999998 0 -1.10107494178e-11)
(-88.3219999998 0 7.28916266546e-12)
(-88.3219999999 0 1.10070544012e-13)
(-88.3220000001 0 1.2758919829e-12)
(-88.3220000003 0 -1.17312270283e-11)
(-88.3219999997 0 -1.99325627207e-12)
(-88.3219999997 0 4.17282629123e-13)
(-88.3220000002 0 1.36381115232e-12)
(-88.3220000002 0 4.48831958326e-12)
(-88.322 0 -7.89637003141e-12)
(-88.322 0 6.23227976068e-11)
(-88.322 0 -5.34795058291e-11)
(-88.322 0 4.34487489747e-11)
(-88.322 0 3.75729099686e-11)
(-88.322 0 2.89171940343e-11)
(-88.322 0 5.84913192791e-12)
(-88.322 0 -2.57664772288e-12)
(-88.322 0 -6.35332314615e-12)
(-88.322 0 1.50253058478e-11)
(-88.322 0 -7.53568346571e-11)
(-88.322 0 3.50240344793e-11)
(-88.322 0 4.68651885567e-11)
(-88.322 0 -1.98418056461e-11)
(-88.322 0 1.99601441296e-11)
(-88.322 0 -2.6409077206e-11)
(-88.322 0 3.60668791157e-12)
(-88.322 0 4.51846329311e-12)
(-88.322 0 -1.38154297882e-12)
(-88.322 0 -8.11621321466e-13)
(-88.322 0 3.9097701671e-12)
(-88.322 0 -5.07585858173e-11)
(-88.322 0 -3.46787312324e-11)
(-88.322 0 -6.11468826912e-11)
(-88.322 0 -4.1175532788e-11)
(-88.322 0 -4.17719340959e-11)
(-88.322 0 -3.43598463802e-11)
(-88.322 0 2.19045613325e-11)
(-88.322 0 4.69975660143e-12)
(-88.322 0 2.46990343714e-13)
(-88.322 0 -2.58573880546e-12)
(-88.322 0 -3.0413917198e-11)
(-88.322 0 6.80447863937e-11)
(-88.322 0 -2.38885718299e-11)
(-88.322 0 -7.58879556763e-11)
(-88.322 0 -1.14772356307e-10)
(-88.322 0 2.11289492269e-11)
(-88.322 0 2.92151728593e-11)
(-88.322 0 -1.60154359995e-10)
(-88.322 0 -1.4154594155e-10)
(-88.322 0 -6.7935092066e-11)
(-88.322 0 5.35671332609e-12)
(-88.3219999999 0 3.14706780145e-12)
(-88.322 0 -2.55042768046e-12)
(-88.322 0 1.84340039518e-11)
(-88.322 0 3.80105487338e-12)
(-88.322 0 7.48060873026e-12)
(-88.322 0 1.58066004446e-12)
(-88.322 0 4.65570263944e-12)
(-88.322 0 7.18736834132e-12)
(-88.322 0 6.94255863043e-11)
(-88.322 0 8.37355010351e-11)
(-88.322 0 -2.51118516282e-11)
(-88.322 0 -4.98234609495e-11)
(-88.322 0 4.40233280523e-11)
(-88.322 0 1.33296560385e-10)
(-88.322 0 -3.29346491549e-11)
(-88.322 0 2.77405439546e-11)
(-88.322 0 -6.48682889694e-11)
(-88.322 0 9.18044908858e-11)
(-88.322 0 5.97005507879e-11)
(-88.322 0 -6.82929728731e-11)
(-88.322 0 -6.89800471347e-11)
(-88.322 0 2.87722304294e-11)
(-88.3219999999 0 2.23487502389e-11)
(-88.3220000001 0 5.14995130943e-12)
(-88.322 0 -2.83006955398e-12)
(-88.3219999998 0 8.2500153647e-13)
(-88.322 0 3.01981118194e-12)
(-88.3220000001 0 3.37459824516e-11)
(-88.322 0 -4.21976477311e-11)
(-88.322 0 3.09081567408e-11)
(-88.322 0 8.44169629063e-12)
(-88.322 0 -1.53581042455e-11)
(-88.322 0 3.33164797988e-11)
(-88.322 0 7.66950465117e-11)
(-88.322 0 6.91720399855e-12)
(-88.3220000001 0 -5.25851223089e-11)
(-88.322 0 7.65676341649e-11)
(-88.3219999999 0 9.56114993381e-11)
(-88.322 0 -9.38684093042e-11)
(-88.322 0 -6.57433195945e-11)
(-88.322 0 -9.44405420059e-12)
(-88.322 0 -2.46613623087e-11)
(-88.3220000001 0 -4.14428671295e-12)
(-88.3220000001 0 -1.6168717339e-11)
(-88.322 0 -7.15413511622e-13)
(-88.322 0 -4.44916937281e-11)
(-88.322 0 -1.19865164381e-10)
(-88.322 0 2.1442598351e-11)
(-88.3219999999 0 6.72918045121e-13)
(-88.3219999999 0 -2.2057017346e-11)
(-88.322 0 3.14143314816e-11)
(-88.322 0 -6.95431627124e-11)
(-88.322 0 2.33181527863e-11)
(-88.3219999999 0 -6.99890226519e-12)
(-88.322 0 -5.63578393436e-11)
(-88.3220000003 0 -3.92243733019e-11)
(-88.3220000002 0 -3.60142804808e-11)
(-88.3219999998 0 -2.21390347829e-11)
(-88.3219999996 0 -1.12158228852e-11)
(-88.3220000002 0 -3.49173289607e-12)
(-88.3220000002 0 9.22070033286e-12)
(-88.3219999999 0 -2.73952889784e-13)
(-88.3219999999 0 5.39096340687e-12)
(-88.322 0 3.40374346951e-11)
(-88.322 0 7.63577731439e-12)
(-88.322 0 3.40030210122e-12)
(-88.322 0 1.1075196307e-11)
(-88.322 0 -9.43244777044e-12)
(-88.322 0 -3.52656394838e-13)
(-88.322 0 5.13468232547e-13)
(-88.322 0 6.81772102402e-12)
(-88.322 0 1.6189576507e-12)
(-88.322 0 1.50617739649e-11)
(-88.322 0 2.47705108158e-12)
(-88.322 0 7.94752035607e-12)
(-88.322 0 8.44416524935e-12)
(-88.322 0 1.66741357442e-11)
(-88.322 0 1.37246718667e-11)
(-88.322 0 -1.26272838399e-11)
(-88.322 0 3.95516855847e-13)
(-88.322 0 -8.21956161182e-12)
(-88.322 0 1.30362418844e-11)
(-88.322 0 7.17228801785e-12)
(-88.322 0 -2.83778425254e-11)
(-88.322 0 -1.18213613728e-10)
(-88.322 0 3.46655521925e-11)
(-88.322 0 2.89991814549e-11)
(-88.322 0 -4.0236350826e-11)
(-88.322 0 6.54551560072e-11)
(-88.322 0 -3.45515475365e-11)
(-88.3219999999 0 -3.75334492541e-11)
(-88.3220000001 0 -2.72018380314e-11)
(-88.322 0 -5.553429261e-12)
(-88.3219999999 0 1.21483997544e-11)
(-88.3220000001 0 -9.16949966737e-12)
(-88.322 0 -8.55058773019e-13)
(-88.3219999998 0 -3.40012887233e-12)
(-88.322 0 1.22857151295e-11)
(-88.3220000002 0 1.55691241405e-11)
(-88.3219999999 0 -3.29464131942e-12)
(-88.3219999997 0 6.04096970079e-11)
(-88.3220000003 0 -3.30674758221e-12)
(-88.3220000003 0 -1.84814907817e-13)
(-88.3219999998 0 -5.01624748866e-12)
(-88.3219999999 0 -3.36062769694e-12)
(-88.322 0 2.98073672738e-13)
(-88.322 0 -1.36357845538e-12)
(-88.322 0 6.46422753183e-11)
(-88.3220000001 0 3.69737194967e-11)
(-88.3220000002 0 6.05745864524e-11)
(-88.3219999999 0 3.80420505168e-11)
(-88.3219999998 0 4.24761785309e-11)
(-88.3220000001 0 3.5765315083e-11)
(-88.322 0 -2.02902524454e-11)
(-88.3220000001 0 -1.17555142653e-13)
(-88.322 0 -1.07610012437e-11)
(-88.3219999999 0 5.14554736229e-11)
(-88.3220000002 0 8.86162654606e-11)
(-88.322 0 -9.91439044218e-11)
(-88.322 0 -7.44328623051e-12)
(-88.322 0 9.0057511341e-11)
(-88.322 0 7.67634039891e-11)
(-88.322 0 -4.31854745502e-13)
(-88.322 0 -1.18634844677e-10)
(-88.322 0 1.45556533005e-10)
(-88.322 0 7.56419543651e-11)
(-88.322 0 3.37125213865e-11)
(-88.322 0 -1.75426830687e-11)
(-88.322 0 -4.65384586279e-12)
(-88.322 0 6.09958223889e-12)
(-88.322 0 1.13382960912e-12)
(-88.322 0 -7.25082488065e-12)
(-88.322 0 1.06186706992e-12)
(-88.322 0 6.70975453832e-13)
(-88.322 0 1.14077318033e-11)
(-88.322 0 7.21927021627e-12)
(-88.322 0 1.56819170411e-12)
(-88.322 0 3.29012522986e-12)
(-88.322 0 -2.24311470669e-11)
(-88.322 0 -2.85802435065e-11)
(-88.322 0 -4.1998378608e-12)
(-88.322 0 1.6823865261e-12)
(-88.322 0 1.78862937958e-12)
(-88.322 0 6.02859969912e-12)
(-88.322 0 2.53470195937e-12)
(-88.322 0 -5.90852149312e-13)
(-88.322 0 4.89200426155e-12)
(-88.3220000002 0 8.81633083116e-13)
(-88.3219999998 0 -5.64915709224e-13)
(-88.3219999997 0 2.63179360356e-12)
(-88.322 0 -1.29799597125e-11)
(-88.322 0 5.65670012388e-12)
(-88.322 0 3.80504864159e-12)
(-88.322 0 2.15030050832e-11)
(-88.322 0 1.68562889868e-11)
(-88.322 0 3.40572157806e-11)
(-88.322 0 2.36982464365e-11)
(-88.322 0 9.32392631243e-12)
(-88.322 0 3.99310414359e-11)
(-88.322 0 -6.9381309149e-12)
(-88.322 0 -3.89718467847e-11)
(-88.322 0 -1.13200026117e-10)
(-88.322 0 -5.40575223853e-11)
(-88.322 0 5.72350218273e-11)
(-88.322 0 -9.88764893468e-11)
(-88.322 0 -9.49070426247e-11)
(-88.322 0 7.86054652148e-11)
(-88.322 0 4.75514960381e-11)
(-88.322 0 1.18758590424e-11)
(-88.322 0 1.61938400455e-11)
(-88.322 0 2.19710358749e-12)
(-88.322 0 1.8481522774e-12)
(-88.322 0 4.78436569692e-13)
(-88.322 0 3.88677217274e-11)
(-88.322 0 1.05734618057e-10)
(-88.322 0 -1.81306685807e-11)
(-88.322 0 -4.33559172935e-12)
(-88.322 0 1.96993026254e-11)
(-88.322 0 -1.83954331878e-11)
(-88.3219999999 0 5.66733157927e-11)
(-88.3219999998 0 -3.05978718893e-11)
(-88.3220000002 0 -7.30117492734e-12)
(-88.3220000002 0 -1.69989147073e-11)
(-88.3219999999 0 -4.35325739765e-11)
(-88.322 0 3.94119557319e-11)
(-88.322 0 -1.00347069626e-10)
(-88.322 0 8.4552245453e-11)
(-88.3219999999 0 2.89874612639e-11)
(-88.3219999999 0 3.56983475769e-11)
(-88.3220000001 0 1.92485484286e-11)
(-88.322 0 1.32953274208e-11)
(-88.322 0 -3.07676849407e-12)
(-88.322 0 -6.20824512169e-13)
(-88.322 0 1.251398245e-11)
(-88.322 0 9.5822254638e-11)
(-88.322 0 -4.78858563188e-11)
(-88.322 0 7.81251909698e-11)
(-88.322 0 1.1433627679e-10)
(-88.322 0 -2.50279314022e-11)
(-88.322 0 -5.05645644664e-13)
(-88.322 0 5.87150019147e-12)
(-88.322 0 -1.17340088529e-12)
(-88.322 0 1.26448848744e-11)
(-88.322 0 1.36918795708e-11)
(-88.322 0 -1.93346985179e-11)
(-88.322 0 6.70105121182e-11)
(-88.322 0 6.83629651571e-11)
(-88.322 0 4.80123139776e-11)
(-88.322 0 2.86685704837e-11)
(-88.322 0 -3.12404331935e-12)
(-88.322 0 -1.28396908835e-11)
(-88.322 0 8.28048021139e-11)
(-88.322 0 1.61087817876e-10)
(-88.322 0 -4.083041472e-11)
(-88.322 0 -7.14606070188e-11)
(-88.322 0 -5.30853538213e-11)
(-88.322 0 8.12116022168e-11)
(-88.322 0 5.61565287353e-11)
(-88.3219999999 0 2.76010747449e-14)
(-88.3220000001 0 6.39000515063e-11)
(-88.322 0 3.73275374943e-11)
(-88.3219999999 0 3.54474712038e-11)
(-88.3220000002 0 -3.2709854034e-11)
(-88.3220000001 0 4.26737652354e-12)
(-88.322 0 3.49557093705e-13)
(-88.3220000001 0 -2.12746218377e-12)
(-88.3219999999 0 -1.22977272973e-12)
(-88.322 0 4.80833846844e-12)
(-88.322 0 1.88967687169e-12)
(-88.322 0 -8.31689715025e-13)
(-88.322 0 1.24170459685e-11)
(-88.322 0 4.43956190627e-12)
(-88.322 0 -5.63016232264e-12)
(-88.322 0 3.97031785358e-13)
(-88.322 0 4.61448846456e-13)
(-88.322 0 -8.45244099876e-14)
(-88.322 0 -1.05926694276e-13)
(-88.322 0 -7.98344234582e-13)
(-88.322 0 1.23141722806e-11)
(-88.322 0 -5.0826946494e-12)
(-88.322 0 -3.90255063408e-13)
(-88.322 0 7.69899692251e-13)
(-88.322 0 4.12096790169e-12)
(-88.322 0 3.31263687539e-11)
(-88.322 0 -5.75201928172e-11)
(-88.3220000001 0 -6.47200201835e-11)
(-88.3220000001 0 6.0231925205e-11)
(-88.3219999999 0 3.40205529809e-11)
(-88.3220000001 0 5.13315695142e-12)
(-88.3219999999 0 4.31409949965e-11)
(-88.3219999997 0 -1.74403180253e-11)
(-88.3220000001 0 5.35979649425e-11)
(-88.322 0 -5.32054385198e-11)
(-88.322 0 8.36784535885e-12)
(-88.322 0 -1.19295768347e-11)
(-88.322 0 1.64521321989e-11)
(-88.322 0 1.90346122472e-12)
(-88.3219999998 0 -7.63863582642e-12)
(-88.3220000001 0 4.28228418269e-13)
(-88.322 0 8.15372324574e-13)
(-88.3219999997 0 -3.8856257663e-13)
(-88.3220000002 0 -6.94284309844e-12)
(-88.3220000002 0 -7.52554059861e-12)
(-88.322 0 5.27440596801e-12)
(-88.322 0 -2.95125245411e-11)
(-88.322 0 4.94307908438e-11)
(-88.322 0 -7.99026529665e-11)
(-88.322 0 -1.16763661708e-10)
(-88.3219999999 0 -2.70996626225e-11)
(-88.3219999999 0 -2.7928816195e-11)
(-88.322 0 -4.72662429974e-12)
(-88.3220000001 0 -4.24100846969e-12)
(-88.3220000001 0 -4.36942857388e-12)
(-88.3220000001 0 1.1841458757e-12)
(-88.3219999999 0 -5.20642411781e-13)
(-88.3219999999 0 -2.37121754136e-13)
(-88.3220000001 0 -2.12737213485e-12)
(-88.3220000002 0 -1.66298451333e-12)
(-88.322 0 1.25413567558e-11)
(-88.3219999997 0 -1.37301995716e-11)
(-88.3219999998 0 -1.2750656406e-12)
(-88.3220000002 0 -2.60819898103e-11)
(-88.322 0 -1.67712412204e-11)
(-88.3219999999 0 -6.79421664801e-11)
(-88.322 0 1.56701828299e-11)
(-88.3220000002 0 -5.19105686103e-11)
(-88.3220000001 0 -6.10385960002e-11)
(-88.3219999999 0 5.90745749508e-11)
(-88.322 0 3.26260579194e-11)
(-88.322 0 -3.98706526759e-11)
(-88.322 0 1.14836175395e-11)
(-88.322 0 -3.90249356546e-11)
(-88.322 0 1.23211533486e-10)
(-88.322 0 2.24115403034e-11)
(-88.322 0 -1.55117832117e-11)
(-88.322 0 3.81567196717e-12)
(-88.322 0 1.23457533857e-12)
(-88.322 0 1.00727475013e-13)
(-88.322 0 4.43432862462e-12)
(-88.322 0 1.42512528022e-11)
(-88.322 0 1.85436687582e-13)
(-88.322 0 -3.06474944875e-14)
(-88.322 0 -1.85990436661e-13)
(-88.322 0 7.57727468866e-13)
(-88.322 0 3.3201072845e-13)
(-88.322 0 4.20265214817e-12)
(-88.322 0 5.74881310748e-13)
(-88.322 0 -7.16028987021e-13)
(-88.322 0 -5.93847531926e-12)
(-88.322 0 4.597800528e-12)
(-88.322 0 5.25807313657e-11)
(-88.322 0 5.61265343543e-11)
(-88.322 0 -9.52976241978e-12)
(-88.322 0 1.23240481155e-10)
(-88.322 0 -6.12334159354e-11)
(-88.322 0 -2.18412951474e-11)
(-88.322 0 1.94598247325e-11)
(-88.322 0 2.86059324768e-11)
(-88.322 0 -4.25584505218e-12)
(-88.322 0 2.02137356128e-11)
(-88.322 0 2.40036149183e-12)
(-88.322 0 -1.25049689017e-11)
(-88.322 0 -8.94013523683e-11)
(-88.322 0 5.76119582139e-11)
(-88.322 0 -7.68613975339e-11)
(-88.322 0 -1.14472659025e-10)
(-88.322 0 2.48545090466e-11)
(-88.3220000001 0 4.76498683153e-13)
(-88.3219999999 0 -1.2262391143e-11)
(-88.3220000001 0 2.54675929276e-12)
(-88.3220000004 0 -5.45437535967e-12)
(-88.3219999999 0 4.02668696927e-12)
(-88.3219999998 0 6.40001186226e-12)
(-88.3219999999 0 -6.75424713357e-11)
(-88.3219999999 0 -5.84054036745e-11)
(-88.322 0 -4.27271090087e-11)
(-88.322 0 -2.29433883006e-11)
(-88.322 0 2.75663809772e-12)
(-88.322 0 8.36108990237e-12)
(-88.322 0 -4.94204275968e-11)
(-88.322 0 -4.42281447344e-11)
(-88.322 0 2.96589314693e-12)
(-88.322 0 5.03677743702e-11)
(-88.322 0 3.13235082582e-11)
(-88.322 0 -8.67712932179e-11)
(-88.322 0 -6.51769866264e-11)
(-88.322 0 -2.39770274349e-12)
(-88.322 0 -6.55035686378e-11)
(-88.322 0 -3.70546645329e-11)
(-88.322 0 -4.79551727184e-11)
(-88.322 0 4.30784243616e-11)
(-88.3219999999 0 -1.6581592276e-12)
(-88.3220000002 0 3.27659775618e-13)
(-88.3220000001 0 -1.56313052221e-12)
(-88.3219999999 0 4.86784019489e-13)
(-88.3219999997 0 1.33481042385e-11)
(-88.3219999999 0 -2.03276525735e-12)
(-88.3220000003 0 5.47653426186e-12)
(-88.322 0 -1.07623669386e-11)
(-88.3219999999 0 -3.83847203269e-12)
(-88.322 0 1.03129527486e-11)
(-88.322 0 7.02141505868e-13)
(-88.322 0 -2.1621591507e-12)
(-88.322 0 -1.43884113209e-11)
(-88.322 0 -3.45560145085e-12)
(-88.322 0 1.20711804098e-12)
(-88.322 0 -9.92963907339e-12)
(-88.322 0 4.29746885753e-12)
(-88.322 0 5.18019513636e-13)
(-88.322 0 -2.22182808397e-12)
(-88.322 0 -6.11574550173e-12)
(-88.322 0 -2.90713614477e-11)
(-88.322 0 6.47502223263e-11)
(-88.322 0 6.18690893914e-11)
(-88.322 0 -8.96441345013e-11)
(-88.322 0 -5.91103124203e-11)
(-88.322 0 -9.51242795647e-12)
(-88.322 0 -4.90820863449e-11)
(-88.322 0 2.18369781629e-11)
(-88.3219999999 0 -5.21035709124e-11)
(-88.3219999999 0 5.68738603736e-11)
(-88.3220000001 0 -3.90204468526e-12)
(-88.3220000001 0 1.19701014912e-11)
(-88.322 0 -1.36446778347e-11)
(-88.322 0 -2.59737628696e-12)
(-88.322 0 7.21140246278e-12)
(-88.322 0 -1.28918506593e-12)
(-88.322 0 1.31610856258e-12)
(-88.322 0 4.25644409589e-12)
(-88.322 0 3.89821483054e-12)
(-88.322 0 -3.98588681239e-12)
(-88.322 0 -6.76735375795e-12)
(-88.322 0 2.0269236327e-11)
(-88.322 0 -5.361543829e-11)
(-88.322 0 9.85344103592e-11)
(-88.322 0 1.48529800565e-10)
(-88.322 0 2.85641685989e-11)
(-88.322 0 2.65990626341e-11)
(-88.322 0 2.95267430485e-12)
(-88.322 0 -2.05328427187e-12)
(-88.322 0 4.97843193111e-12)
(-88.322 0 1.4751922515e-13)
(-88.322 0 1.26832627437e-13)
(-88.322 0 -1.07732904272e-12)
(-88.322 0 3.64321775502e-12)
(-88.322 0 3.12499264381e-12)
(-88.322 0 7.22393008299e-13)
(-88.322 0 4.69586182117e-12)
(-88.322 0 -2.00333459941e-12)
(-88.322 0 4.38223377434e-12)
(-88.322 0 4.49593657357e-12)
(-88.322 0 -3.5349373684e-12)
(-88.322 0 8.3818741707e-12)
(-88.322 0 4.33438458458e-12)
(-88.322 0 1.03285000656e-11)
(-88.322 0 -3.53596563857e-11)
(-88.322 0 5.86339129132e-11)
(-88.322 0 3.34548110235e-11)
(-88.322 0 -9.63776334425e-12)
(-88.322 0 3.09403780682e-11)
(-88.322 0 -1.68611961446e-10)
(-88.322 0 -8.87211486413e-12)
(-88.322 0 2.81820861568e-11)
(-88.322 0 2.58143245366e-12)
(-88.322 0 -2.81155090509e-12)
(-88.322 0 1.23501686995e-11)
(-88.322 0 -6.62225362117e-12)
(-88.322 0 -1.36043922974e-11)
(-88.322 0 -1.54969319154e-12)
(-88.322 0 3.70856955586e-12)
(-88.322 0 1.21329505786e-11)
(-88.322 0 2.93811404444e-12)
(-88.322 0 1.00979511295e-11)
(-88.322 0 -2.90604684458e-12)
(-88.322 0 -3.88214133433e-12)
(-88.3219999999 0 1.37263973808e-11)
(-88.3219999998 0 6.58788692769e-12)
(-88.3220000003 0 1.47500648915e-11)
(-88.3220000003 0 -1.68408252262e-11)
(-88.3219999998 0 1.82358275539e-12)
(-88.322 0 -7.41370022173e-12)
(-88.3219999999 0 -5.15670290801e-12)
(-88.322 0 -2.17584176822e-11)
(-88.3219999999 0 3.21548335433e-11)
(-88.3219999999 0 -1.2407140202e-10)
(-88.3220000001 0 -8.33430294698e-11)
(-88.322 0 -3.7217197194e-11)
(-88.322 0 8.43648037408e-13)
(-88.322 0 1.37547140481e-11)
(-88.322 0 -1.00568748038e-11)
(-88.322 0 -1.09737761987e-11)
(-88.322 0 5.96559218113e-12)
(-88.322 0 3.36142628121e-12)
(-88.322 0 -1.05489572187e-11)
(-88.322 0 -2.19904500259e-11)
(-88.322 0 -8.72306396056e-12)
(-88.322 0 -9.60457951902e-12)
(-88.322 0 1.86607568133e-12)
(-88.322 0 -7.749633018e-12)
(-88.322 0 -6.57062153011e-12)
(-88.322 0 1.29924335103e-12)
(-88.322 0 -8.03294196189e-13)
(-88.322 0 -3.60236001201e-12)
(-88.322 0 -5.37475602797e-12)
(-88.322 0 -2.49828540629e-12)
(-88.322 0 9.58259346935e-13)
(-88.322 0 -1.54403182468e-11)
(-88.322 0 -1.37837687024e-11)
(-88.322 0 1.90136520212e-11)
(-88.322 0 4.52079069532e-11)
(-88.322 0 -5.24615546839e-11)
(-88.322 0 -5.60300857553e-11)
(-88.322 0 -4.60040074925e-11)
(-88.322 0 1.86037606485e-12)
(-88.322 0 -1.58762814623e-11)
(-88.322 0 7.70977484618e-12)
(-88.322 0 -3.55264951023e-11)
(-88.322 0 -4.56518538472e-11)
(-88.322 0 -5.73913007325e-11)
(-88.3219999998 0 7.70273249404e-13)
(-88.3220000001 0 -7.33367498302e-11)
(-88.3220000003 0 -7.41212836474e-11)
(-88.3219999999 0 -1.54196864688e-10)
(-88.3220000001 0 6.10720236256e-11)
(-88.322 0 1.68165995837e-10)
(-88.3219999999 0 -9.24944445486e-11)
(-88.322 0 -1.1254972644e-10)
(-88.322 0 2.48194422863e-11)
(-88.322 0 1.48039493346e-11)
(-88.322 0 -9.10633825701e-11)
(-88.322 0 -9.71503830842e-11)
(-88.322 0 8.17310368252e-11)
(-88.322 0 -5.40885670548e-11)
(-88.322 0 3.30110587179e-11)
(-88.322 0 -1.06293830763e-10)
(-88.322 0 9.87713886184e-11)
(-88.322 0 7.52965358519e-12)
(-88.322 0 6.14928557064e-12)
(-88.322 0 1.16088114084e-11)
(-88.322 0 -3.19056624538e-11)
(-88.322 0 -1.1894579591e-10)
(-88.3220000001 0 -1.07870684947e-10)
(-88.322 0 2.0930689649e-11)
(-88.322 0 1.07288342655e-10)
(-88.322 0 1.66055437162e-10)
(-88.322 0 -4.18386327725e-11)
(-88.3219999999 0 -7.96182556257e-11)
(-88.3220000001 0 5.19216923331e-11)
(-88.3220000001 0 -1.88529174355e-11)
(-88.3219999999 0 -2.8553211142e-11)
(-88.322 0 1.37576374146e-11)
(-88.322 0 1.09895620373e-11)
(-88.322 0 2.69662449447e-12)
(-88.322 0 -1.29062255526e-12)
(-88.322 0 -1.83554892013e-11)
(-88.322 0 1.30493525172e-12)
(-88.322 0 -1.62641126385e-11)
(-88.322 0 8.83070017281e-12)
(-88.322 0 6.39966371076e-12)
(-88.322 0 -4.05147469759e-12)
(-88.322 0 -6.849900865e-11)
(-88.322 0 -5.32239478533e-11)
(-88.322 0 -7.77527442321e-11)
(-88.322 0 -9.32412323445e-11)
(-88.322 0 -6.69900173802e-11)
(-88.322 0 -3.39027769032e-12)
(-88.322 0 1.1017705673e-11)
(-88.322 0 -5.25728999328e-13)
(-88.322 0 -2.37860348139e-11)
(-88.322 0 -4.37413516818e-11)
(-88.322 0 3.45667346578e-11)
(-88.3219999999 0 4.90616199295e-11)
(-88.3219999999 0 1.10672573613e-10)
(-88.3220000002 0 -4.31540534066e-11)
(-88.3220000002 0 -1.3268867403e-11)
(-88.322 0 9.82711297244e-12)
(-88.3219999999 0 1.7424734764e-11)
(-88.3219999999 0 2.6310984391e-11)
(-88.322 0 9.37742054356e-12)
(-88.322 0 9.21631578811e-12)
(-88.3220000001 0 1.76111120253e-12)
(-88.322 0 -4.59270942389e-12)
(-88.3219999999 0 -1.65887039762e-13)
(-88.322 0 7.92857827967e-12)
(-88.3220000001 0 -8.98055825153e-11)
(-88.3220000002 0 5.21471023648e-11)
(-88.3219999997 0 5.92486524899e-11)
(-88.3219999993 0 2.72810516255e-11)
(-88.3220000003 0 1.06659972383e-10)
(-88.3220000006 0 -2.75366155293e-11)
(-88.3219999998 0 1.02671943498e-11)
(-88.3219999997 0 1.20046345434e-12)
(-88.3220000002 0 -7.78657678536e-13)
(-88.3220000002 0 6.22737651724e-13)
(-88.3219999997 0 -8.20909231976e-12)
(-88.3219999999 0 8.61216726244e-12)
(-88.3220000001 0 -6.06306491007e-12)
(-88.3220000001 0 -4.21812738837e-13)
(-88.3219999999 0 1.59821954538e-11)
(-88.3219999998 0 1.33086630957e-11)
(-88.3220000002 0 2.76029637962e-11)
(-88.322 0 -3.03904244051e-11)
(-88.3220000001 0 -4.78353616481e-11)
(-88.3220000001 0 1.71888834806e-11)
(-88.322 0 -5.02603722663e-12)
(-88.322 0 7.85474635509e-12)
(-88.3219999998 0 3.42693067591e-11)
(-88.3219999995 0 2.9344275905e-11)
(-88.3220000003 0 3.0941166208e-11)
(-88.3220000004 0 -7.6565958333e-12)
(-88.3219999998 0 1.02047275016e-11)
(-88.3219999998 0 -4.09345052445e-11)
(-88.322 0 6.26842255376e-11)
(-88.322 0 3.63125297348e-11)
(-88.322 0 2.27211577482e-11)
(-88.322 0 -1.87289769918e-11)
(-88.322 0 -1.33711941166e-11)
(-88.322 0 8.70740984577e-12)
(-88.322 0 -3.37133025051e-12)
(-88.322 0 -6.28418825581e-13)
(-88.322 0 -6.20241800649e-12)
(-88.322 0 3.16321045749e-12)
(-88.322 0 1.17200545643e-11)
(-88.3220000002 0 7.07283581238e-12)
(-88.3220000001 0 1.02099295438e-12)
(-88.322 0 -1.95199737384e-11)
(-88.322 0 -1.8377854548e-13)
(-88.322 0 -1.25975268605e-11)
(-88.3219999998 0 -4.460035567e-12)
(-88.3219999998 0 -8.18626863639e-12)
(-88.322 0 -9.47700946906e-13)
(-88.322 0 -4.06080525195e-13)
(-88.3220000001 0 2.9677852092e-12)
(-88.3219999999 0 -2.05396796614e-12)
(-88.3219999998 0 1.6210932026e-11)
(-88.3219999998 0 8.33198434266e-12)
(-88.3220000002 0 -1.58846365338e-11)
(-88.3220000003 0 -4.67476324731e-11)
(-88.3219999999 0 4.83526008319e-11)
(-88.322 0 5.46856198765e-11)
(-88.322 0 4.14336638857e-11)
(-88.322 0 -1.0260121699e-12)
(-88.322 0 1.63653630935e-11)
(-88.322 0 -3.11356659378e-12)
(-88.322 0 3.6211106145e-11)
(-88.322 0 4.57056021349e-11)
(-88.322 0 5.647074497e-11)
(-88.322 0 -4.0940546614e-14)
(-88.322 0 7.56508589514e-11)
(-88.322 0 7.61911841555e-11)
(-88.322 0 1.58917058724e-10)
(-88.322 0 -6.04372059636e-11)
(-88.3220000001 0 -1.64290166019e-10)
(-88.322 0 8.94070914105e-11)
(-88.322 0 1.10940046368e-10)
(-88.322 0 -2.35404796071e-11)
(-88.322 0 -1.5744320281e-11)
(-88.322 0 8.98150972135e-11)
(-88.322 0 9.56685280597e-11)
(-88.322 0 -8.33207301779e-11)
(-88.322 0 5.46588085411e-11)
(-88.322 0 -3.30681054117e-11)
(-88.322 0 1.04977740455e-10)
(-88.322 0 -9.91386434763e-11)
(-88.3220000001 0 -6.80349828238e-12)
(-88.3220000001 0 -6.61577292209e-12)
(-88.3219999999 0 -1.5351435921e-11)
(-88.3219999999 0 1.47297721755e-11)
(-88.322 0 1.02449553257e-10)
(-88.322 0 9.18421860959e-11)
(-88.322 0 4.63761127594e-12)
(-88.322 0 -4.66915419727e-11)
(-88.322 0 -1.75841550308e-10)
(-88.322 0 8.76822403752e-11)
(-88.322 0 5.49806012111e-11)
(-88.322 0 -1.11008548846e-12)
(-88.322 0 -3.97216458088e-11)
(-88.322 0 1.27911213024e-11)
(-88.322 0 -2.23932667862e-11)
(-88.322 0 1.60974539092e-12)
(-88.322 0 1.26905941556e-11)
(-88.322 0 -5.26323792647e-12)
(-88.322 0 1.67967190415e-11)
(-88.322 0 -1.21112093641e-12)
(-88.322 0 1.3704373505e-11)
(-88.322 0 -1.28955863249e-11)
(-88.322 0 -1.82732337982e-11)
(-88.322 0 -9.93602586566e-12)
(-88.322 0 3.71951723632e-11)
(-88.322 0 5.92271840568e-11)
(-88.322 0 3.63655469043e-11)
(-88.322 0 2.13293409034e-11)
(-88.322 0 -7.35013246211e-12)
(-88.322 0 -6.48439795259e-13)
(-88.322 0 -1.03535729017e-11)
(-88.322 0 6.86022844059e-13)
(-88.322 0 2.04532089904e-11)
(-88.322 0 4.36913898711e-11)
(-88.322 0 -3.85275304737e-11)
(-88.322 0 -4.94269837601e-11)
(-88.322 0 -1.08527586141e-10)
(-88.322 0 3.67030329267e-11)
(-88.322 0 1.33029228302e-11)
(-88.322 0 -9.35532101532e-12)
(-88.322 0 -1.72306355966e-11)
(-88.322 0 -2.77188073508e-11)
(-88.322 0 -1.6580032275e-11)
(-88.322 0 -9.67927645895e-12)
(-88.322 0 -1.29725954613e-14)
(-88.322 0 5.46361125446e-12)
(-88.322 0 8.32629677035e-12)
(-88.322 0 -2.92174501465e-11)
(-88.322 0 3.3893275096e-11)
(-88.322 0 -5.16337988926e-11)
(-88.322 0 -4.80111938707e-11)
(-88.322 0 -6.96679162168e-11)
(-88.322 0 1.96490958854e-11)
(-88.322 0 -4.89125963135e-11)
(-88.322 0 -1.01148676322e-10)
(-88.322 0 6.46005888806e-11)
(-88.322 0 4.69772738629e-11)
(-88.322 0 -1.65177845741e-11)
(-88.322 0 2.33441877439e-12)
(-88.322 0 -5.30562139169e-11)
(-88.322 0 -5.93071982111e-11)
(-88.322 0 -3.22906736028e-11)
(-88.322 0 -6.64265967464e-11)
(-88.322 0 -2.95239265028e-11)
(-88.322 0 -3.27067612255e-11)
(-88.322 0 2.9581360868e-11)
(-88.322 0 5.1402410441e-11)
(-88.3219999999 0 -3.15182747474e-11)
(-88.3219999998 0 1.0506487346e-11)
(-88.3220000002 0 -3.7094159498e-11)
(-88.3220000001 0 4.00259590151e-11)
(-88.3219999999 0 -3.14261260077e-11)
(-88.322 0 -1.18795674958e-10)
(-88.322 0 -8.00418203194e-11)
(-88.322 0 -3.88852572717e-11)
(-88.322 0 4.96197038712e-12)
(-88.322 0 1.11840160462e-12)
(-88.322 0 -1.1629714895e-12)
(-88.322 0 4.94765516659e-13)
(-88.322 0 8.16466617581e-12)
(-88.322 0 -1.11597881831e-11)
(-88.322 0 -2.19806815534e-12)
(-88.322 0 -1.59283998364e-12)
(-88.322 0 -5.80329524203e-12)
(-88.322 0 -2.17338948313e-12)
(-88.322 0 6.1827493285e-12)
(-88.322 0 2.20673289348e-13)
(-88.322 0 3.60023788746e-12)
(-88.322 0 -1.76188887889e-11)
(-88.322 0 7.006983285e-11)
(-88.3220000001 0 -8.85979079023e-11)
(-88.3220000001 0 -1.35625492951e-10)
(-88.3219999999 0 -1.32611371223e-11)
(-88.3219999998 0 -1.84499633108e-12)
(-88.322 0 -6.21844219692e-13)
(-88.322 0 6.13424504934e-13)
(-88.322 0 -4.81565633074e-12)
(-88.322 0 6.8622213727e-13)
(-88.322 0 -1.30241425846e-12)
(-88.322 0 -1.57161074005e-12)
(-88.322 0 -7.14802270497e-12)
(-88.322 0 -7.87470522207e-13)
(-88.322 0 4.51342723458e-12)
(-88.322 0 1.21298806351e-14)
(-88.322 0 -1.21657298894e-12)
(-88.322 0 -6.4023149315e-12)
(-88.322 0 -3.17714028139e-12)
(-88.322 0 -1.49912965271e-11)
(-88.322 0 -6.51593201018e-13)
(-88.322 0 2.11639416521e-14)
(-88.3220000001 0 6.97498576249e-13)
(-88.322 0 -2.78009325264e-14)
(-88.322 0 -4.96832895089e-13)
(-88.3220000001 0 -4.2494252675e-13)
(-88.322 0 -9.05907240921e-13)
(-88.3219999998 0 -1.27030383136e-11)
(-88.322 0 -1.13075317308e-12)
(-88.3220000003 0 1.87531336392e-13)
(-88.3219999997 0 -3.5421234977e-13)
(-88.3219999997 0 1.02236570634e-13)
(-88.3220000002 0 1.55647687652e-12)
(-88.3220000001 0 8.79340364329e-14)
(-88.3220000001 0 2.2554825724e-13)
(-88.3220000001 0 2.28183858209e-13)
(-88.322 0 -2.08235341681e-12)
(-88.322 0 -6.40540990426e-13)
(-88.322 0 -4.34446310011e-13)
(-88.3219999999 0 -3.69968369447e-14)
(-88.322 0 -2.68116741461e-13)
(-88.322 0 5.90140320632e-13)
(-88.322 0 6.07839976053e-12)
(-88.322 0 7.36915480154e-12)
(-88.322 0 -4.85180546582e-13)
(-88.322 0 -5.21363828741e-12)
(-88.322 0 -1.15787784483e-11)
(-88.3220000003 0 -2.8911031e-11)
(-88.3220000001 0 -4.47782563831e-12)
(-88.3219999999 0 -1.71201406841e-11)
(-88.3219999998 0 -4.05283540539e-13)
(-88.3219999999 0 4.35286187873e-11)
(-88.322 0 4.30968413878e-11)
(-88.322 0 3.51463937363e-11)
(-88.322 0 1.65974867457e-11)
(-88.3220000001 0 2.92348923182e-11)
(-88.322 0 -5.30262383548e-12)
(-88.322 0 4.08905765229e-12)
(-88.322 0 1.67932286815e-11)
(-88.322 0 3.87009915023e-13)
(-88.322 0 1.85627747481e-12)
(-88.322 0 4.83643862307e-12)
(-88.322 0 1.22339899785e-11)
(-88.322 0 1.29349003454e-11)
(-88.3219999999 0 6.32162345313e-11)
(-88.3220000001 0 6.28635016373e-11)
(-88.3220000004 0 2.77044672726e-11)
(-88.3219999998 0 6.77566694776e-11)
(-88.3219999997 0 1.17046778509e-10)