/*--------------------------------*- C++ -*----------------------------------*\
  =========                 |
  \\      /  F ield         | OpenFOAM: The Open Source CFD Toolbox
   \\    /   O peration     | Website:  https://openfoam.org
    \\  /    A nd           | Version:  6
     \\/     M anipulation  |
\*---------------------------------------------------------------------------*/
FoamFile
{
    version     2.0;
    format      ascii;
    class       volScalarField;
    location    "4.9e-05";
    object      p;
}
// * * * * * * * * * * * * * * * * * * * * * * * * * * * * * * * * * * * * * //

dimensions      [1 -1 -2 0 0 0 0];

internalField   nonuniform List<scalar> 
8192
(
6000000.00075
5999999.99938
6000000.00034
6000000.00115
6000000.00493
5999999.99795
6000000.00182
5999999.99936
6000000.00053
5999999.99987
6000000.00022
5999999.99983
6000000.00061
6000000.00139
6000000.00079
6000000.00067
6000000.00054
5999999.99798
5999999.99901
6000000.00059
5999999.99859
5999999.99727
6000000.00172
5999999.99982
5999999.99947
5999999.99996
5999999.99789
5999999.99908
5999999.99823
5999999.99891
6000000.00025
6000000.0007
5999999.99637
5999999.99389
6000000.00774
6000000.00754
5999999.9991
6000000.00432
5999999.99962
5999999.99689
6000000.00411
5999999.99746
6000000.00035
5999999.99988
6000000.00048
6000000.00042
6000000.00017
5999999.99967
5999999.99927
6000000.00167
5999999.99679
6000000.0008
6000000.0033
5999999.99564
5999999.99616
6000000.00118
5999999.99997
6000000.00332
6000000.0001
6000000.00604
5999999.99655
5999999.99727
5999999.99695
6000000.00271
6000000.00086
6000000.00228
6000000.00002
6000000.00407
5999999.99546
6000000.00332
5999999.99865
5999999.99642
6000000.00265
6000000.0027
6000000.00681
5999999.99673
5999999.99453
6000000.00643
6000000.00246
5999999.99524
5999999.99446
5999999.9919
6000000.00318
6000000.00585
6000000.00012
5999999.99922
6000000.00638
6000000.00469
5999999.99734
5999999.99716
5999999.9983
5999999.9983
5999999.99691
6000000.00465
5999999.99669
6000000.00243
6000000.00163
5999999.99943
6000000.00378
5999999.9982
5999999.99972
5999999.99988
5999999.9997
6000000.0003
5999999.99891
6000000.0003
6000000.00012
6000000
5999999.99998
5999999.99998
6000000.00011
6000000.00032
5999999.99939
6000000.00065
5999999.99962
6000000.00153
6000000.00009
5999999.99854
6000000.00075
5999999.99895
5999999.99918
5999999.99877
6000000.00021
5999999.99868
6000000.00021
5999999.99951
6000000.00027
6000000.00034
6000000.00619
6000000.00055
5999999.99655
6000000.00061
5999999.99843
5999999.99959
5999999.99998
5999999.99959
6000000.00085
6000000.00088
5999999.99853
6000000.00368
6000000.00076
6000000.00321
6000000.00437
5999999.9965
5999999.99696
5999999.99806
6000000.00213
6000000.0023
5999999.99986
5999999.99991
5999999.99879
6000000.00063
5999999.99466
6000000.00036
5999999.99699
5999999.99677
6000000.00174
6000000.00137
5999999.99829
5999999.99914
5999999.99978
5999999.99963
6000000.00013
6000000.00052
5999999.99961
6000000.00227
6000000.00019
6000000.00116
5999999.99761
6000000.00063
5999999.99723
6000000.00333
6000000.00196
6000000.00273
6000000.00194
6000000.00413
6000000.00224
6000000.00021
5999999.99413
6000000.00308
6000000.00177
5999999.9978
6000000.00067
5999999.99793
6000000.00299
6000000.00068
6000000.00206
5999999.99282
5999999.99252
6000000.00186
6000000.00629
6000000.00418
5999999.99926
5999999.99921
6000000.00129
6000000.00048
5999999.99986
6000000.00001
5999999.99997
6000000.00001
6000000.00015
6000000.00009
6000000.00002
5999999.99736
5999999.9975
6000000.00307
5999999.9992
5999999.99996
6000000.00004
5999999.99998
6000000.00011
6000000.00031
6000000.00043
5999999.99947
5999999.99994
6000000.00008
5999999.99967
6000000.0004
5999999.99995
5999999.99517
6000000.00106
6000000.00187
5999999.99713
6000000.00091
6000000.0069
5999999.9941
5999999.99688
6000000.00528
6000000.00857
5999999.99185
5999999.99459
6000000.00138
6000000.004
5999999.99542
6000000.00332
6000000.00039
6000000.00483
5999999.99821
6000000.00714
6000000.00359
5999999.99075
6000000.00042
6000000.00675
5999999.99848
6000000.00542
5999999.99353
5999999.99824
6000000.00137
6000000.0035
6000000.00405
6000000.00049
6000000.00238
6000000.00081
5999999.99897
5999999.9993
5999999.99924
5999999.99994
5999999.99871
6000000.00064
5999999.99783
6000000.00199
5999999.99823
5999999.99958
5999999.99921
5999999.99964
5999999.99992
5999999.99987
6000000.00149
6000000.0016
5999999.99633
6000000.00041
6000000.00186
5999999.99991
6000000.00301
5999999.99529
5999999.99686
6000000.00504
6000000.00071
5999999.99627
5999999.99465
5999999.9998
5999999.99386
5999999.99848
5999999.99447
6000000.0018
6000000.00576
5999999.99576
6000000.00065
5999999.99914
6000000.00137
5999999.99935
5999999.99935
6000000.00162
5999999.9977
6000000.00225
6000000.00026
6000000.00005
6000000.00016
6000000.00001
6000000.00001
6000000.00003
6000000.00038
5999999.99884
6000000.00152
5999999.99719
5999999.99972
5999999.99811
6000000.00206
6000000.00654
5999999.99863
5999999.99307
6000000.00308
6000000.00735
5999999.9976
6000000.00352
5999999.99825
6000000.00732
5999999.99612
5999999.99645
5999999.9962
6000000.00171
6000000.00257
5999999.9949
6000000.00199
6000000.00118
5999999.99983
6000000.00105
5999999.99819
6000000.00052
6000000.00076
5999999.99762
6000000.00259
6000000.00224
6000000.00093
6000000.00021
5999999.9997
5999999.99685
5999999.99729
6000000.00078
6000000.0011
5999999.99974
5999999.99824
5999999.99746
6000000.00073
5999999.99653
6000000.00081
5999999.99649
5999999.99419
5999999.99661
6000000.00371
5999999.99708
5999999.99631
6000000.00727
5999999.99874
6000000.00308
5999999.9999
5999999.99624
6000000.0039
5999999.99513
6000000.00392
5999999.9999
5999999.99933
6000000.0013
5999999.9997
6000000.00103
6000000.00009
6000000.00098
6000000.00168
5999999.99795
6000000.0031
6000000.00145
5999999.99705
6000000.00198
6000000.00023
6000000.00002
6000000.00388
5999999.99769
6000000.00409
6000000.00285
5999999.99396
5999999.99182
5999999.99535
5999999.9987
6000000.00133
6000000.00238
6000000.00323
5999999.99379
5999999.99143
6000000.00161
5999999.99587
5999999.99876
6000000.00507
5999999.99823
5999999.99874
6000000.00238
5999999.99639
5999999.99796
6000000.00651
5999999.99603
5999999.99909
5999999.99431
6000000.00219
6000000.00518
5999999.99955
5999999.99805
5999999.99146
6000000.00449
5999999.99897
6000000.00477
5999999.99895
5999999.99649
6000000.0033
5999999.99476
5999999.99378
6000000.00034
6000000.00281
5999999.99822
5999999.99802
5999999.99774
6000000.00183
6000000.00189
5999999.99733
6000000.00212
5999999.99846
5999999.9994
6000000.00114
5999999.99901
5999999.99961
5999999.99993
6000000.00066
6000000.00132
5999999.99714
6000000.00166
6000000.00048
5999999.99953
5999999.99747
6000000.00184
6000000.00046
5999999.99894
6000000.00179
6000000.00143
5999999.99766
5999999.99944
6000000.00034
5999999.99926
5999999.99652
5999999.99689
5999999.99872
5999999.99532
6000000.00278
6000000.0021
6000000.0002
6000000.00056
5999999.99903
6000000.00325
5999999.99801
6000000.00307
6000000.00203
5999999.99551
6000000.00457
6000000.00135
6000000.0005
6000000.00074
5999999.99816
6000000.00215
6000000.00022
5999999.999
6000000.00136
6000000.00009
5999999.99932
5999999.99709
6000000.00465
5999999.99655
5999999.99953
6000000.00189
5999999.99676
6000000.00391
5999999.99585
6000000.00274
5999999.99905
5999999.99914
5999999.99705
6000000.0026
6000000.00633
5999999.99808
5999999.998
6000000.00118
6000000.00277
5999999.99805
5999999.9972
6000000.00615
5999999.99797
5999999.99975
5999999.9996
6000000.00075
6000000.00325
5999999.99758
6000000.00457
5999999.99839
5999999.99865
6000000.00196
6000000.0003
5999999.9996
6000000.00342
6000000.0004
6000000.00302
5999999.99869
5999999.9991
5999999.9995
5999999.99757
5999999.99423
6000000.00279
6000000.00136
5999999.99849
5999999.99956
5999999.99869
6000000.00015
5999999.99813
6000000.00109
5999999.99877
6000000.00046
5999999.99946
5999999.99988
6000000.00029
5999999.9982
6000000.00087
6000000.00022
5999999.99986
5999999.99989
5999999.9998
6000000.00016
6000000.00032
5999999.99979
5999999.99993
5999999.99982
6000000.00002
5999999.99981
5999999.99992
5999999.9997
5999999.99943
5999999.99999
6000000
5999999.99981
5999999.99998
6000000.00005
5999999.99993
5999999.99861
6000000.0026
5999999.99824
5999999.99929
5999999.99903
5999999.99923
6000000.00007
5999999.99991
6000000.00001
5999999.99975
6000000.00153
6000000.00065
6000000.0001
6000000.00023
5999999.99935
5999999.99758
6000000.00272
6000000.00326
5999999.99848
5999999.9931
5999999.99306
6000000.00142
6000000.00637
6000000.00252
6000000.00398
5999999.99663
6000000.00459
5999999.99339
6000000.00107
5999999.99613
6000000.0004
5999999.99994
6000000.0032
5999999.99892
6000000.00195
5999999.99771
6000000.00176
5999999.99969
6000000.00002
6000000.00026
6000000.00037
6000000.00003
5999999.99966
6000000.00304
5999999.99969
6000000.00001
6000000.00002
5999999.99992
5999999.99989
6000000.00005
6000000.00058
5999999.99889
5999999.99885
5999999.99891
5999999.99926
5999999.99988
5999999.99854
5999999.9966
6000000.00182
6000000.00078
6000000.00084
6000000.00227
5999999.99747
5999999.99727
6000000.00761
6000000.00344
6000000.00144
6000000.00313
5999999.99717
5999999.99881
6000000.00097
5999999.99914
6000000.00087
6000000.00018
6000000.00057
6000000.00054
6000000.00249
5999999.99946
5999999.99777
6000000.00049
5999999.99965
5999999.99974
6000000.00484
5999999.99923
5999999.99774
6000000.00311
6000000.00174
6000000.00046
6000000.00102
5999999.99646
5999999.99765
6000000.00483
6000000.0055
6000000.00275
5999999.99678
5999999.99763
6000000.00311
5999999.99988
5999999.99801
5999999.99683
6000000.00413
6000000.0031
5999999.99977
6000000.00191
5999999.99787
6000000.0014
5999999.9995
6000000.00065
6000000.00079
6000000.0005
6000000.00114
5999999.99946
5999999.99903
6000000.00144
6000000.00116
5999999.99385
5999999.99443
6000000.00356
6000000.00085
5999999.99933
5999999.99844
6000000.00312
5999999.99712
6000000.00083
6000000.00147
6000000.00295
5999999.99322
6000000.00284
6000000.00167
6000000.00505
5999999.99546
5999999.99772
6000000.00151
6000000.00054
5999999.9947
5999999.99782
6000000.00489
6000000.00591
5999999.99935
6000000.0018
6000000.00131
6000000.00434
5999999.99722
6000000.00146
6000000.00177
5999999.99541
6000000.00329
6000000.00331
6000000.00563
6000000.00876
5999999.99527
5999999.99794
6000000.00389
6000000.00689
5999999.9944
5999999.99481
6000000.0026
5999999.9979
6000000
6000000.0007
5999999.99609
6000000.00192
5999999.99699
6000000.00053
5999999.99602
5999999.99397
6000000.00391
6000000.00335
5999999.99845
6000000.00327
6000000.00132
6000000.00013
5999999.99977
5999999.9986
5999999.99716
6000000.00389
6000000.00764
5999999.99647
5999999.99859
5999999.99225
6000000.00502
6000000.00631
5999999.99559
5999999.99732
5999999.99579
5999999.99728
5999999.99638
6000000.00097
5999999.99913
6000000.0018
5999999.99901
5999999.99976
6000000.00338
5999999.99434
5999999.99457
5999999.99625
6000000.00704
6000000.00022
5999999.99858
6000000.00093
5999999.99984
6000000.00266
5999999.99907
6000000.0016
6000000.00607
5999999.9962
5999999.99406
5999999.99256
6000000.00302
6000000.00273
5999999.99195
5999999.99661
5999999.99681
6000000.0014
5999999.99865
5999999.99309
6000000.00406
6000000.00461
5999999.9999
6000000.0009
5999999.99999
6000000.0006
6000000.00082
6000000.00048
6000000.00004
5999999.99997
5999999.99991
5999999.99988
6000000.00015
6000000.0003
5999999.99838
6000000.00206
6000000.00655
6000000.00005
6000000.00094
6000000.00286
5999999.99924
6000000.00348
6000000.00125
5999999.99988
5999999.99988
5999999.99982
6000000.00152
5999999.99747
5999999.99713
6000000.0011
5999999.99615
6000000.00108
5999999.99866
5999999.9995
5999999.99923
5999999.99988
5999999.99984
6000000.00004
6000000.00039
5999999.99777
6000000.00341
5999999.99858
5999999.99901
5999999.99992
5999999.99774
6000000.00106
6000000.00114
6000000.00012
6000000.0004
5999999.99886
6000000.00381
5999999.99989
6000000.00001
6000000.00051
5999999.99961
6000000.00041
5999999.99766
6000000.00593
6000000.0035
5999999.99487
5999999.99835
6000000.00227
5999999.99804
6000000.00346
5999999.99891
5999999.99991
6000000.00006
5999999.9995
6000000.00026
5999999.99917
6000000.00083
5999999.997
6000000.00196
6000000.00106
6000000.00101
5999999.99967
6000000.00016
5999999.99686
6000000.00713
6000000.00354
5999999.9937
6000000.00145
6000000.00306
6000000.00461
5999999.99602
5999999.99522
6000000.00411
5999999.9986
5999999.99944
6000000.0002
5999999.99995
5999999.99992
5999999.99996
6000000.00002
5999999.99989
5999999.99993
5999999.99988
6000000.00023
5999999.99832
6000000.00257
5999999.99721
5999999.9996
6000000.00131
5999999.99302
6000000.00526
6000000.0052
6000000.00172
5999999.99926
6000000.00328
6000000.00539
5999999.99657
5999999.99533
6000000.00308
5999999.99909
6000000.00334
6000000.0054
6000000.00054
6000000.00595
6000000.00011
5999999.99978
6000000.00085
6000000.00069
5999999.99985
6000000
6000000.00358
5999999.99793
6000000.00073
6000000.00182
6000000.00324
6000000.00289
5999999.99439
6000000.00197
6000000.00066
6000000.00083
5999999.99903
6000000.00515
6000000.00351
5999999.99759
6000000.0029
6000000.00029
5999999.9992
6000000.00063
5999999.99934
6000000.00226
5999999.99327
6000000.00268
6000000.00157
6000000.00012
5999999.99879
6000000.00017
6000000.0012
5999999.99975
6000000.00002
6000000.00002
6000000
6000000.00001
5999999.99989
6000000.00001
5999999.99981
5999999.99996
6000000.00028
5999999.99899
6000000.00166
5999999.99961
5999999.9998
5999999.9997
6000000.00024
5999999.99826
6000000.00068
6000000.00044
6000000.00071
5999999.99757
5999999.99797
6000000.00113
6000000.00183
5999999.9985
6000000.00098
5999999.99822
6000000.00297
6000000.0026
6000000.00051
6000000.00031
5999999.99962
5999999.99896
6000000.00226
5999999.99525
6000000.00664
5999999.99678
5999999.99454
6000000.0038
6000000.0044
6000000.00531
5999999.99994
6000000.0002
5999999.99457
5999999.99527
5999999.9953
6000000.00187
5999999.99772
6000000.00519
5999999.99917
5999999.9974
6000000.00071
5999999.99728
6000000.00203
5999999.99804
6000000.00512
5999999.99265
5999999.99534
6000000.00429
5999999.99486
5999999.99676
5999999.99816
6000000.00193
6000000.00171
6000000.00121
6000000.00002
6000000.00104
6000000.00067
6000000.00255
5999999.99636
6000000.00222
6000000.00128
5999999.99975
5999999.99814
5999999.99994
5999999.99999
5999999.99825
5999999.99884
6000000.00144
5999999.99993
6000000.00158
6000000.00217
5999999.99733
5999999.999
6000000.00464
5999999.9992
5999999.9997
5999999.9999
6000000.00001
6000000.00001
6000000.00014
6000000.00003
5999999.99983
6000000.00058
6000000.00013
5999999.99628
6000000.00089
5999999.99957
5999999.99986
5999999.99997
6000000.00034
5999999.99798
6000000.00358
6000000.00201
5999999.99512
6000000.00667
5999999.99385
5999999.99292
6000000.00274
6000000.0055
5999999.99154
5999999.99754
5999999.99716
5999999.99931
6000000.00155
5999999.99788
6000000.00121
5999999.99609
5999999.99701
6000000.00053
5999999.99741
6000000.0034
5999999.99807
6000000.00166
6000000.00304
5999999.99533
5999999.99522
5999999.99418
5999999.99937
6000000.00484
6000000.00214
5999999.99608
5999999.99304
6000000.00415
6000000.00304
5999999.9934
5999999.99905
6000000.0059
6000000.00446
5999999.99775
5999999.99778
6000000.00443
5999999.99968
6000000.00002
6000000.00001
5999999.99987
6000000.00091
6000000.00152
5999999.99847
5999999.99818
5999999.99861
6000000.00041
6000000.0017
5999999.99951
6000000.00069
5999999.9983
5999999.99772
6000000.00152
6000000.00056
6000000.00027
6000000.00002
6000000.00003
5999999.99992
5999999.99995
6000000.00037
5999999.99909
5999999.99877
6000000.00018
6000000.00249
5999999.99786
5999999.99984
6000000.00006
5999999.99449
6000000.00042
6000000.00054
6000000.00448
6000000.00173
5999999.99944
6000000.00142
6000000.00049
5999999.99784
6000000.00317
5999999.9965
6000000.00309
6000000.00078
6000000.00485
5999999.99917
5999999.99969
6000000.00595
6000000.00239
6000000.00367
6000000.00211
5999999.99638
5999999.99876
6000000.00296
5999999.99957
5999999.99734
5999999.99712
6000000.00252
5999999.99753
5999999.99896
5999999.9968
6000000.00028
6000000.00227
5999999.99836
5999999.99848
5999999.99884
5999999.99981
5999999.99985
6000000.00145
6000000.00055
6000000.0007
5999999.99901
6000000.00159
6000000.00157
5999999.99823
5999999.99989
6000000.00011
6000000.00002
6000000.00011
5999999.99999
6000000.00106
6000000.00118
5999999.99806
6000000.0028
6000000.00192
5999999.99628
6000000.00506
5999999.99494
5999999.99819
6000000.00265
6000000.00657
6000000.00306
6000000.00251
6000000.00169
5999999.9923
5999999.99725
5999999.99861
5999999.99908
6000000.00377
6000000.00487
5999999.99333
5999999.99691
5999999.99474
6000000.00592
6000000.00272
6000000.00301
5999999.99869
6000000.00092
6000000.00075
6000000.00192
5999999.99957
5999999.9991
5999999.99976
6000000.00003
5999999.99992
6000000.00084
5999999.9992
6000000.00111
5999999.99976
6000000.00001
5999999.99867
5999999.99612
6000000.00369
6000000.00113
5999999.99593
5999999.99477
6000000.00577
5999999.99821
5999999.99565
6000000.0017
6000000.00638
5999999.99521
6000000.00443
5999999.99879
5999999.99788
6000000.0057
5999999.99932
6000000.00015
5999999.99998
6000000
6000000.00007
6000000.00001
6000000.00007
6000000.00002
6000000.00007
6000000.0002
6000000.00025
6000000.00003
6000000.00014
5999999.99935
6000000.00108
6000000.00147
5999999.99493
6000000.00331
6000000.00509
5999999.99864
6000000.00178
6000000.00242
6000000.00226
5999999.99916
6000000.00035
5999999.99381
6000000.00124
5999999.99942
6000000.00135
6000000.00293
5999999.99899
5999999.99878
5999999.99937
5999999.99888
6000000.00027
5999999.99851
6000000.00124
6000000.00188
5999999.99831
5999999.99944
5999999.99876
6000000.00133
5999999.99974
5999999.99999
5999999.99986
5999999.9993
6000000.00081
5999999.9991
5999999.99797
6000000.00365
5999999.99637
6000000.00158
5999999.99893
5999999.9993
5999999.99987
5999999.9992
6000000.00199
5999999.9954
6000000.00203
5999999.99939
5999999.99923
6000000.00003
5999999.99944
5999999.99987
5999999.99961
6000000.00109
5999999.99848
5999999.99946
5999999.99995
5999999.99993
5999999.99992
5999999.99998
6000000.00009
5999999.99993
5999999.9997
6000000
5999999.9999
5999999.9999
6000000.00001
5999999.99945
6000000.00179
5999999.99953
6000000.00016
6000000.00013
6000000.00139
5999999.99813
6000000.00158
5999999.99627
6000000.00257
6000000.00166
6000000.00201
6000000.00241
5999999.99687
5999999.9993
5999999.99808
6000000.00247
5999999.99903
5999999.99797
6000000.00164
5999999.99827
5999999.99915
5999999.99963
6000000.00011
6000000.00425
6000000.00191
6000000.00334
5999999.99909
6000000.00032
6000000.00245
5999999.99491
6000000.00081
5999999.99648
6000000.00529
6000000.00204
5999999.99418
5999999.99539
5999999.99523
6000000.00588
6000000.0019
6000000.00589
5999999.99699
5999999.99789
6000000.00078
5999999.99499
5999999.99424
5999999.99693
5999999.99821
6000000.00222
5999999.99487
5999999.99675
5999999.99335
6000000.00043
5999999.99509
5999999.99801
5999999.99669
5999999.99658
5999999.99519
5999999.99464
6000000.00402
6000000.00133
6000000.00133
5999999.9941
6000000.00236
5999999.99967
6000000.00017
6000000.00111
5999999.99866
6000000.00027
5999999.99597
6000000.00319
5999999.99467
5999999.99483
6000000.0024
5999999.99444
5999999.99517
6000000.00603
5999999.99533
5999999.99386
6000000.00104
6000000.002
5999999.99954
6000000.00133
6000000.00054
6000000.00033
5999999.99997
6000000.00066
5999999.99952
6000000.00054
5999999.99908
6000000.00022
6000000.00021
5999999.99992
5999999.99993
6000000.00007
6000000.00155
5999999.99974
5999999.99965
6000000.00127
6000000.00008
5999999.99953
5999999.99969
5999999.99948
5999999.99906
6000000.00026
6000000.00002
6000000.00034
5999999.99959
5999999.99914
6000000.00062
6000000.00205
5999999.99828
6000000.00088
6000000.00283
6000000.00264
5999999.99616
5999999.99745
6000000.00321
5999999.99937
6000000.00141
6000000.00055
5999999.99673
6000000.00293
6000000.0024
6000000.00011
5999999.99861
6000000.00005
5999999.99828
6000000.00351
6000000.00028
6000000.00119
5999999.99878
5999999.99762
6000000.00631
6000000.00584
5999999.99315
5999999.99736
6000000.00179
6000000.00142
5999999.99882
6000000.00125
5999999.99991
6000000.0033
5999999.99916
6000000.00238
5999999.99967
5999999.99957
5999999.99997
6000000.00004
5999999.99996
5999999.99998
5999999.99998
6000000.00001
6000000.00004
6000000.00014
6000000
6000000
6000000.00001
5999999.99999
6000000.00019
5999999.99996
6000000.00001
5999999.99993
5999999.99996
6000000.00021
6000000.00024
5999999.99995
6000000.00014
5999999.99999
6000000.00001
5999999.99973
6000000.0003
5999999.99995
6000000.00028
5999999.99945
5999999.9993
5999999.99922
6000000.00051
5999999.9997
6000000.00274
5999999.9994
5999999.99968
5999999.99968
6000000.00015
6000000.00004
6000000.00013
5999999.99993
6000000.00001
6000000
6000000.00011
5999999.99906
6000000.00062
5999999.99885
6000000.00349
5999999.99944
5999999.99887
6000000.00152
5999999.99886
6000000.00374
6000000.00378
5999999.99866
5999999.99979
6000000.00629
6000000.00086
6000000.0007
6000000.00093
5999999.99968
6000000.00002
6000000.00007
6000000.00026
6000000.00008
6000000.00007
6000000.00027
5999999.99907
6000000.00122
6000000.0007
6000000.00045
6000000.00029
5999999.99942
5999999.99998
5999999.99992
6000000.00002
5999999.99995
6000000.00098
5999999.99882
5999999.99728
6000000.00252
5999999.99788
6000000.00236
5999999.99641
5999999.99908
5999999.99972
5999999.997
5999999.99976
6000000.004
5999999.99506
5999999.99389
6000000.00192
5999999.99329
5999999.99372
6000000.00106
5999999.9972
5999999.99866
5999999.9958
6000000.00235
6000000.00229
5999999.99669
6000000.00435
5999999.99794
5999999.9978
6000000.00243
6000000.00254
5999999.99959
5999999.99932
5999999.99965
6000000.00007
5999999.99983
5999999.99935
6000000.00179
5999999.99945
6000000.00199
5999999.99858
5999999.99817
6000000.00013
5999999.99885
5999999.99941
5999999.99819
5999999.99865
5999999.99867
5999999.99985
5999999.99864
6000000.00376
5999999.9995
5999999.99787
5999999.99981
5999999.99999
5999999.99996
5999999.99983
5999999.99984
6000000.00022
5999999.99998
5999999.99996
6000000.00014
6000000.00012
5999999.99998
6000000.00007
5999999.99998
6000000.00016
6000000.00062
6000000.0005
5999999.99767
5999999.99805
6000000.00118
6000000.00019
5999999.99998
5999999.99998
6000000
5999999.99989
5999999.99969
6000000.00011
5999999.99999
5999999.99905
6000000.00071
5999999.99969
6000000.0015
5999999.99905
6000000.00021
6000000.00179
5999999.99944
6000000.00034
5999999.99944
6000000.00003
5999999.99991
6000000
5999999.99983
5999999.99991
6000000
5999999.99938
5999999.99853
6000000.0002
5999999.99908
6000000.00239
5999999.99796
6000000.001
6000000.00055
5999999.99986
6000000.00035
6000000.00128
5999999.99909
5999999.99601
6000000.00364
6000000.00018
6000000.00014
6000000.00071
6000000.00178
6000000.00042
5999999.99737
6000000.00418
6000000.00308
5999999.99979
5999999.99802
6000000.00223
6000000.00171
5999999.9988
6000000.00512
6000000.00034
6000000.0025
5999999.99693
5999999.99754
6000000.00125
5999999.9991
5999999.99973
5999999.99689
6000000.00396
6000000.00101
5999999.99879
6000000.00029
5999999.99841
6000000.00336
5999999.99836
6000000.0017
5999999.99465
6000000.00626
6000000.00482
5999999.99821
6000000.00108
5999999.99293
5999999.99246
6000000.00331
6000000.00248
6000000.00448
5999999.99802
5999999.99533
6000000.00425
5999999.99613
5999999.99879
5999999.99886
5999999.99812
6000000.00109
5999999.99912
6000000.00017
5999999.9998
5999999.99947
6000000.00036
5999999.99779
6000000.00205
5999999.99966
5999999.99889
6000000.00249
5999999.99803
6000000.00129
5999999.99614
6000000.00031
5999999.99999
5999999.99964
5999999.99847
5999999.99842
6000000.00154
6000000.00171
5999999.99922
6000000.00688
6000000.00253
5999999.99413
6000000.00303
5999999.99853
6000000.00702
6000000.00525
5999999.99739
5999999.99582
5999999.99877
6000000.00644
6000000.00194
5999999.99716
5999999.99601
5999999.99537
6000000.00292
5999999.99692
5999999.99482
5999999.9981
5999999.99479
6000000.00406
5999999.99729
5999999.99658
5999999.99866
6000000.00173
5999999.99752
5999999.99743
6000000.00138
6000000.00125
5999999.99633
5999999.99763
5999999.99558
5999999.99568
5999999.99733
5999999.99858
6000000.00085
5999999.99292
5999999.9941
6000000.00178
6000000.00041
5999999.99525
5999999.99576
5999999.99503
5999999.99378
6000000.00426
5999999.99692
5999999.99233
6000000.00014
5999999.99592
6000000.00232
6000000.00509
5999999.99261
5999999.99453
5999999.99761
6000000.00548
6000000.00084
5999999.99771
6000000.00317
6000000.00565
5999999.99978
6000000.00601
5999999.99625
5999999.99364
6000000.00361
6000000.0007
5999999.99951
5999999.99465
5999999.99641
6000000.0027
5999999.9961
5999999.99842
6000000.0021
5999999.99893
6000000.00297
6000000.00713
6000000.0032
5999999.99847
5999999.99528
5999999.99726
6000000.00579
6000000.00224
5999999.99563
5999999.99714
6000000.00083
6000000.00621
6000000.00093
5999999.99893
5999999.99977
6000000.00149
5999999.9986
5999999.9991
6000000.00349
6000000.00173
5999999.99696
6000000.00267
5999999.99669
5999999.99961
5999999.99735
6000000.00039
6000000.00217
5999999.99415
6000000.00001
6000000.00106
5999999.99419
5999999.99744
6000000.00294
5999999.99811
5999999.9981
6000000.00258
5999999.99843
5999999.9966
5999999.99561
5999999.99798
5999999.99594
5999999.99927
5999999.99795
6000000.00679
5999999.99766
6000000.0003
6000000.00529
5999999.9986
6000000.00135
5999999.99998
6000000.00848
5999999.99714
6000000.00082
6000000.00633
6000000.00685
5999999.99892
5999999.99804
6000000.00999
6000000.00779
6000000.00607
5999999.99805
5999999.99805
6000000.00798
6000000.00837
6000000.00183
6000000.00671
6000000.0023
5999999.99508
6000000.00679
6000000.00784
6000000.00014
5999999.99727
6000000.00745
6000000.00258
5999999.99406
6000000.0024
6000000.00219
6000000.00909
6000000.00769
5999999.99766
6000000.00231
6000000.00713
5999999.99615
5999999.99953
6000000.00645
6000000.00917
6000000.00054
6000000.00632
6000000.00556
6000000.00489
5999999.998
6000000.00128
6000000.0084
6000000.00954
6000000.01006
6000000.00299
6000000.00296
6000000.00643
6000000.01028
5999999.99968
6000000.00291
6000000.00576
5999999.9966
6000000.00568
6000000.00523
6000000.00988
6000000.00419
6000000.0074
6000000.00572
5999999.99359
6000000.00685
6000000.00209
5999999.99858
6000000.00874
5999999.99878
5999999.99978
5999999.99855
6000000.0004
5999999.9983
5999999.99961
5999999.99899
5999999.99949
5999999.99928
5999999.99951
5999999.99722
5999999.99771
5999999.99953
5999999.99812
6000000.00021
5999999.99825
5999999.99869
5999999.99829
6000000.00011
5999999.9979
5999999.99748
5999999.99856
5999999.99968
5999999.99854
5999999.9986
5999999.99958
5999999.9975
5999999.99844
5999999.9993
5999999.99579
5999999.99846
6000000.00025
5999999.99917
5999999.99672
5999999.99936
5999999.99742
5999999.99988
5999999.99887
5999999.99869
5999999.99676
5999999.999
6000000.00001
5999999.99781
5999999.99944
5999999.9996
5999999.99869
5999999.99881
5999999.99913
5999999.99664
5999999.99685
5999999.99939
5999999.99997
6000000.00023
6000000.00045
5999999.99833
5999999.99895
5999999.99789
5999999.99829
5999999.99827
5999999.99874
5999999.99957
6000000.00038
6000000.00204
5999999.99833
5999999.99934
5999999.99944
5999999.99987
5999999.99973
6000000.00064
5999999.99983
5999999.99953
6000000.00023
5999999.99973
5999999.99968
5999999.99973
5999999.99979
6000000.00039
6000000.00001
5999999.99979
5999999.99962
6000000.00028
6000000.00035
5999999.99986
6000000.00028
5999999.99989
6000000.00036
5999999.99993
5999999.99984
6000000.00023
6000000
6000000.00041
5999999.99988
6000000.00002
5999999.99952
6000000.00031
6000000.00045
6000000.00023
6000000.00049
5999999.99998
6000000.0005
6000000.0005
5999999.99975
6000000.00023
5999999.99993
6000000.00029
6000000.00012
5999999.99973
6000000.00085
6000000.00023
6000000.0005
6000000.00026
5999999.99956
5999999.99988
5999999.99973
6000000.00012
6000000.00006
6000000.00035
6000000.00044
5999999.99971
6000000.00005
6000000.00023
6000000.00007
6000000.0003
6000000.00015
6000000.00021
6000000.00042
5999999.99974
6000000.00057
6000000.00071
6000000.00102
6000000.00094
6000000.00105
6000000.00058
6000000.001
6000000.00084
6000000.0012
6000000.00083
6000000.00078
6000000.0009
6000000.00087
6000000.00084
6000000.0008
6000000.00091
6000000.00095
6000000.0008
6000000.00096
6000000.00111
6000000.00089
6000000.0011
6000000.00118
6000000.00071
6000000.00101
6000000.00095
6000000.00089
6000000.00074
6000000.00055
6000000.001
6000000.00089
6000000.00088
6000000.00087
6000000.00087
6000000.00116
6000000.00073
6000000.00093
6000000.00073
6000000.00082
6000000.00063
6000000.00085
6000000.00099
6000000.00107
6000000.00099
6000000.0009
6000000.00092
6000000.00094
6000000.00077
6000000.00103
6000000.00119
6000000.00125
6000000.00076
6000000.00089
6000000.0008
6000000.00096
6000000.00097
6000000.00094
6000000.00097
6000000.00103
6000000.00101
6000000.00101
6000000.0009
6000000.00121
6000000.00133
6000000.00086
5999999.99901
5999999.99871
5999999.99882
5999999.99904
5999999.99876
5999999.99916
5999999.99882
5999999.99879
5999999.99871
5999999.99874
5999999.99885
5999999.99897
5999999.99901
5999999.99884
5999999.9986
5999999.99875
5999999.9988
5999999.99899
5999999.99886
5999999.99905
5999999.99879
5999999.99875
5999999.99914
5999999.99898
5999999.99873
5999999.99889
5999999.99935
5999999.99874
5999999.99894
5999999.99908
5999999.999
5999999.99943
5999999.99912
5999999.99909
5999999.99891
5999999.99889
5999999.9991
5999999.99868
5999999.9986
5999999.9987
5999999.99902
5999999.9991
5999999.99886
5999999.99902
5999999.99894
5999999.99898
5999999.99927
5999999.99901
5999999.99882
5999999.99901
5999999.99887
5999999.99865
5999999.99884
5999999.99865
5999999.99893
5999999.99889
5999999.99896
5999999.99898
5999999.9989
5999999.99885
5999999.99883
5999999.99904
5999999.99882
5999999.99889
5999999.99952
5999999.99934
5999999.99947