/*--------------------------------*- C++ -*----------------------------------*\
  =========                 |
  \\      /  F ield         | OpenFOAM: The Open Source CFD Toolbox
   \\    /   O peration     | Website:  https://openfoam.org
    \\  /    A nd           | Version:  6
     \\/     M anipulation  |
\*---------------------------------------------------------------------------*/
FoamFile
{
    version     2.0;
    format      ascii;
    class       volScalarField;
    location    "4.88e-05";
    object      p;
}
// * * * * * * * * * * * * * * * * * * * * * * * * * * * * * * * * * * * * * //

dimensions      [1 -1 -2 0 0 0 0];

internalField   nonuniform List<scalar> 
8192
(
6000000.00074
5999999.99938
6000000.00036
6000000.00111
6000000.00487
5999999.99792
6000000.00177
5999999.99938
6000000.00048
5999999.99986
6000000.00019
5999999.99984
6000000.00062
6000000.0014
6000000.00077
6000000.00065
6000000.00054
5999999.99803
5999999.99904
6000000.00059
5999999.99854
5999999.99727
6000000.00169
5999999.99984
5999999.99947
6000000
5999999.99794
5999999.9991
5999999.99823
5999999.99893
6000000.00026
6000000.00068
5999999.9964
5999999.99388
6000000.00773
6000000.00756
5999999.99911
6000000.00434
5999999.99959
5999999.99694
6000000.00402
5999999.9975
6000000.00033
5999999.99988
6000000.00048
6000000.0004
6000000.00017
5999999.9997
5999999.99927
6000000.00166
5999999.99684
6000000.00077
6000000.00326
5999999.99569
5999999.99622
6000000.00119
5999999.99997
6000000.00327
6000000.00008
6000000.00597
5999999.99657
5999999.9973
5999999.99695
6000000.00266
6000000.00083
6000000.00225
5999999.99999
6000000.00404
5999999.99551
6000000.00328
5999999.99865
5999999.99649
6000000.00267
6000000.00271
6000000.0068
5999999.99673
5999999.99451
6000000.00643
6000000.00246
5999999.99524
5999999.99446
5999999.9919
6000000.00317
6000000.00587
6000000.00012
5999999.99919
6000000.00638
6000000.0047
5999999.99737
5999999.99716
5999999.99833
5999999.9983
5999999.99695
6000000.00458
5999999.99671
6000000.00239
6000000.00162
5999999.99945
6000000.00378
5999999.99822
5999999.99971
5999999.99988
5999999.9997
6000000.00029
5999999.99897
6000000.00029
6000000.00012
6000000
5999999.99998
5999999.99998
6000000.0001
6000000.0003
5999999.99939
6000000.00064
5999999.99965
6000000.00149
6000000.0001
5999999.99857
6000000.00077
5999999.99896
5999999.99921
5999999.9988
6000000.0002
5999999.99872
6000000.0002
5999999.99948
6000000.00028
6000000.00031
6000000.00616
6000000.00056
5999999.99662
6000000.00059
5999999.99849
5999999.99957
5999999.99997
5999999.99961
6000000.00081
6000000.0009
5999999.99849
6000000.00369
6000000.00076
6000000.00323
6000000.00436
5999999.99645
5999999.99694
5999999.99806
6000000.00208
6000000.00229
5999999.99985
5999999.99991
5999999.9988
6000000.00066
5999999.99468
6000000.00043
5999999.99703
5999999.99675
6000000.00172
6000000.00131
5999999.9983
5999999.99912
5999999.99977
5999999.99959
6000000.00013
6000000.00048
5999999.9996
6000000.00229
6000000.00018
6000000.00117
5999999.99767
6000000.00063
5999999.99726
6000000.00328
6000000.00197
6000000.0027
6000000.00196
6000000.00413
6000000.00224
6000000.00024
5999999.99416
6000000.00304
6000000.00173
5999999.99782
6000000.00067
5999999.99794
6000000.00297
6000000.00072
6000000.00206
5999999.99291
5999999.99251
6000000.00185
6000000.00629
6000000.00418
5999999.99926
5999999.99925
6000000.00124
6000000.00045
5999999.99987
6000000.00001
5999999.99997
6000000.00001
6000000.00015
6000000.00007
6000000.00003
5999999.99741
5999999.9975
6000000.00304
5999999.99921
5999999.99998
6000000.00004
5999999.99998
6000000.00011
6000000.00031
6000000.00043
5999999.99947
5999999.99994
6000000.00009
5999999.9997
6000000.00034
5999999.99997
5999999.99526
6000000.001
6000000.00183
5999999.99713
6000000.0009
6000000.00692
5999999.99412
5999999.99689
6000000.00528
6000000.00858
5999999.99179
5999999.99466
6000000.0014
6000000.00398
5999999.99545
6000000.00328
6000000.00036
6000000.00483
5999999.99821
6000000.00712
6000000.00358
5999999.99084
6000000.00037
6000000.0067
5999999.99844
6000000.00542
5999999.99357
5999999.99828
6000000.0014
6000000.00344
6000000.00406
6000000.00051
6000000.00237
6000000.00082
5999999.99896
5999999.99931
5999999.99921
5999999.99992
5999999.99872
6000000.00063
5999999.99786
6000000.00203
5999999.99827
5999999.9996
5999999.99921
5999999.99965
5999999.99992
5999999.99984
6000000.00146
6000000.00161
5999999.99637
6000000.00037
6000000.00179
5999999.99992
6000000.003
5999999.99527
5999999.99691
6000000.00506
6000000.00075
5999999.99629
5999999.99469
5999999.99975
5999999.99394
5999999.99846
5999999.99448
6000000.0018
6000000.00567
5999999.99582
6000000.00066
5999999.99914
6000000.00134
5999999.99937
5999999.99936
6000000.00163
5999999.99772
6000000.0022
6000000.00023
6000000.00004
6000000.00016
6000000.00001
6000000.00001
6000000.00002
6000000.00037
5999999.99884
6000000.0015
5999999.99714
5999999.99974
5999999.99817
6000000.00201
6000000.00645
5999999.9986
5999999.99302
6000000.00301
6000000.00723
5999999.9976
6000000.00351
5999999.99826
6000000.00724
5999999.99608
5999999.99651
5999999.99624
6000000.00175
6000000.00252
5999999.99496
6000000.00196
6000000.00115
5999999.99988
6000000.00103
5999999.99827
6000000.00048
6000000.00077
5999999.99771
6000000.00259
6000000.00225
6000000.00094
6000000.00022
5999999.9997
5999999.9969
5999999.99733
6000000.00074
6000000.00106
5999999.99974
5999999.99826
5999999.99751
6000000.00076
5999999.99653
6000000.00079
5999999.9965
5999999.99416
5999999.9966
6000000.00371
5999999.99715
5999999.99631
6000000.00727
5999999.99876
6000000.00306
5999999.99995
5999999.99631
6000000.00391
5999999.9952
6000000.00387
5999999.99989
5999999.99933
6000000.00124
5999999.9997
6000000.00097
6000000.00009
6000000.00094
6000000.00166
5999999.99798
6000000.00306
6000000.0014
5999999.99711
6000000.00197
6000000.00017
5999999.99999
6000000.0039
5999999.99776
6000000.00403
6000000.00286
5999999.99393
5999999.99192
5999999.99538
5999999.9987
6000000.00129
6000000.00231
6000000.00319
5999999.99386
5999999.99147
6000000.00161
5999999.99587
5999999.99875
6000000.00508
5999999.99823
5999999.99875
6000000.00233
5999999.99643
5999999.99796
6000000.00653
5999999.99604
5999999.99912
5999999.99425
6000000.00213
6000000.00518
5999999.99957
5999999.99807
5999999.99141
6000000.00441
5999999.99902
6000000.00472
5999999.9989
5999999.99654
6000000.00323
5999999.99474
5999999.99371
6000000.00033
6000000.00284
5999999.99822
5999999.99803
5999999.99772
6000000.00183
6000000.00188
5999999.9974
6000000.00209
5999999.99847
5999999.9994
6000000.00112
5999999.99904
5999999.99964
5999999.99995
6000000.00063
6000000.00131
5999999.99713
6000000.00162
6000000.00046
5999999.99953
5999999.99744
6000000.00182
6000000.00047
5999999.99893
6000000.00173
6000000.00139
5999999.99768
5999999.99944
6000000.00034
5999999.99928
5999999.99659
5999999.99692
5999999.9987
5999999.99539
6000000.00273
6000000.00209
6000000.00023
6000000.00053
5999999.99906
6000000.00319
5999999.99801
6000000.00307
6000000.00203
5999999.99549
6000000.00459
6000000.00135
6000000.00048
6000000.00073
5999999.99819
6000000.00215
6000000.00019
5999999.99903
6000000.00132
6000000.0001
5999999.99938
5999999.99716
6000000.00457
5999999.99661
5999999.99951
6000000.00184
5999999.9968
6000000.00385
5999999.99592
6000000.00269
5999999.99904
5999999.99917
5999999.99704
6000000.00259
6000000.00633
5999999.99807
5999999.99798
6000000.00115
6000000.00274
5999999.99812
5999999.99724
6000000.00607
5999999.99801
5999999.99977
5999999.99963
6000000.00073
6000000.00318
5999999.99758
6000000.00452
5999999.99841
5999999.99863
6000000.00192
6000000.0003
5999999.99961
6000000.00339
6000000.00044
6000000.00298
5999999.99872
5999999.99907
5999999.9995
5999999.99753
5999999.99433
6000000.00277
6000000.0013
5999999.99851
5999999.99956
5999999.99872
6000000.00016
5999999.99817
6000000.00105
5999999.99883
6000000.00042
5999999.99949
5999999.9999
6000000.00027
5999999.99827
6000000.00084
6000000.0002
5999999.99987
5999999.99989
5999999.9998
6000000.00015
6000000.00029
5999999.99981
5999999.9999
5999999.99982
6000000.00002
5999999.99981
5999999.99992
5999999.9997
5999999.99947
6000000.00001
6000000
5999999.99981
5999999.99998
6000000.00005
5999999.99993
5999999.9986
6000000.00261
5999999.99819
5999999.99929
5999999.99905
5999999.99925
6000000.00002
5999999.99991
6000000.00001
5999999.99976
6000000.00149
6000000.00065
6000000.00008
6000000.00021
5999999.99936
5999999.9976
6000000.00271
6000000.00329
5999999.99854
5999999.99315
5999999.99301
6000000.00146
6000000.00629
6000000.00245
6000000.00403
5999999.99664
6000000.00458
5999999.99343
6000000.00105
5999999.99618
6000000.00039
5999999.99995
6000000.00314
5999999.99893
6000000.00192
5999999.99773
6000000.00173
5999999.9997
6000000.00002
6000000.00026
6000000.00035
6000000.00003
5999999.99971
6000000.00298
5999999.99973
6000000.00001
6000000.00002
5999999.99992
5999999.99989
6000000.00005
6000000.00056
5999999.99893
5999999.99888
5999999.99895
5999999.99924
5999999.99987
5999999.99855
5999999.99666
6000000.00178
6000000.00078
6000000.00082
6000000.00224
5999999.99749
5999999.99726
6000000.00761
6000000.00345
6000000.0014
6000000.0032
5999999.9972
5999999.99884
6000000.00098
5999999.99917
6000000.00085
6000000.00015
6000000.00057
6000000.00052
6000000.00245
5999999.99946
5999999.99785
6000000.00048
5999999.99965
5999999.99977
6000000.00489
5999999.99928
5999999.99776
6000000.0031
6000000.0017
6000000.00046
6000000.00101
5999999.99651
5999999.99769
6000000.00482
6000000.00545
6000000.00272
5999999.99683
5999999.99766
6000000.00304
5999999.99987
5999999.99806
5999999.99689
6000000.00404
6000000.00303
5999999.9998
6000000.00186
5999999.9979
6000000.00137
5999999.9995
6000000.00067
6000000.00077
6000000.0005
6000000.00111
5999999.99946
5999999.99903
6000000.00145
6000000.00117
5999999.99381
5999999.99449
6000000.00355
6000000.00092
5999999.99935
5999999.99843
6000000.00308
5999999.99714
6000000.00082
6000000.00148
6000000.00292
5999999.99321
6000000.00288
6000000.00166
6000000.00504
5999999.99545
5999999.9977
6000000.0015
6000000.00057
5999999.99469
5999999.99788
6000000.00479
6000000.00588
5999999.9993
6000000.0018
6000000.00129
6000000.00436
5999999.99721
6000000.00144
6000000.00176
5999999.99548
6000000.00329
6000000.00324
6000000.00563
6000000.00877
5999999.99527
5999999.99793
6000000.0039
6000000.00696
5999999.99439
5999999.99478
6000000.00257
5999999.99786
6000000
6000000.0007
5999999.99614
6000000.00195
5999999.99702
6000000.00057
5999999.99609
5999999.99403
6000000.00385
6000000.00336
5999999.99848
6000000.0033
6000000.00134
6000000.00015
5999999.99975
5999999.99866
5999999.99723
6000000.00389
6000000.00765
5999999.99646
5999999.99859
5999999.99224
6000000.00502
6000000.00633
5999999.99561
5999999.99732
5999999.99579
5999999.99731
5999999.99638
6000000.00093
5999999.99914
6000000.00173
5999999.99903
5999999.99975
6000000.00333
5999999.99439
5999999.99455
5999999.99627
6000000.0069
6000000.0002
5999999.99864
6000000.00091
5999999.99979
6000000.00263
5999999.9991
6000000.0016
6000000.0061
5999999.99619
5999999.99416
5999999.99263
6000000.00298
6000000.00272
5999999.99191
5999999.99667
5999999.99679
6000000.00142
5999999.99862
5999999.99316
6000000.00406
6000000.00454
5999999.99991
6000000.0009
5999999.99999
6000000.00058
6000000.00078
6000000.00047
6000000.00003
5999999.99998
5999999.99991
5999999.99988
6000000.00015
6000000.00029
5999999.99843
6000000.00207
6000000.00645
6000000.00006
6000000.00092
6000000.00282
5999999.99924
6000000.00341
6000000.00124
5999999.99985
5999999.99987
5999999.99983
6000000.00152
5999999.99753
5999999.99715
6000000.0011
5999999.9962
6000000.00106
5999999.99869
5999999.99951
5999999.99927
5999999.99989
5999999.99984
6000000.00005
6000000.00036
5999999.99775
6000000.00335
5999999.9986
5999999.99905
5999999.99992
5999999.99771
6000000.00104
6000000.00111
6000000.00011
6000000.00041
5999999.99888
6000000.00378
5999999.99989
6000000
6000000.00051
5999999.99957
6000000.00042
5999999.99771
6000000.00584
6000000.00346
5999999.99496
5999999.99834
6000000.00227
5999999.99802
6000000.00347
5999999.99896
5999999.99993
6000000.00006
5999999.99954
6000000.00026
5999999.9992
6000000.00088
5999999.99705
6000000.00195
6000000.00105
6000000.00098
5999999.9997
6000000.00017
5999999.99686
6000000.00718
6000000.00351
5999999.99368
6000000.00146
6000000.00301
6000000.00459
5999999.99606
5999999.99519
6000000.00403
5999999.99863
5999999.99945
6000000.0002
5999999.99995
5999999.99992
5999999.99996
6000000.00002
5999999.99989
5999999.99993
5999999.99988
6000000.00023
5999999.99836
6000000.0025
5999999.99722
5999999.9996
6000000.0013
5999999.9931
6000000.00528
6000000.00525
6000000.00172
5999999.99924
6000000.00331
6000000.00534
5999999.99665
5999999.99541
6000000.00313
5999999.9991
6000000.00335
6000000.00541
6000000.00055
6000000.00597
6000000.00012
5999999.99979
6000000.00087
6000000.0007
5999999.99986
6000000.00003
6000000.00355
5999999.99798
6000000.00075
6000000.00185
6000000.00324
6000000.00285
5999999.99437
6000000.0019
6000000.00064
6000000.00078
5999999.99903
6000000.0052
6000000.00346
5999999.99765
6000000.00287
6000000.00029
5999999.9992
6000000.00064
5999999.99931
6000000.00223
5999999.99327
6000000.0027
6000000.00159
6000000.00008
5999999.99884
6000000.00017
6000000.00114
5999999.99977
6000000.00002
6000000.00002
6000000
6000000.00001
5999999.99989
6000000.00001
5999999.99981
5999999.99999
6000000.00027
5999999.99902
6000000.0016
5999999.99964
5999999.99979
5999999.99971
6000000.00023
5999999.9983
6000000.00064
6000000.00042
6000000.0007
5999999.99763
5999999.998
6000000.00111
6000000.0018
5999999.99855
6000000.00098
5999999.99826
6000000.00295
6000000.00254
6000000.00049
6000000.0003
5999999.99958
5999999.99894
6000000.00227
5999999.99524
6000000.00665
5999999.99679
5999999.99457
6000000.00386
6000000.00444
6000000.0053
5999999.99993
6000000.00021
5999999.99464
5999999.99524
5999999.99533
6000000.00184
5999999.99772
6000000.00519
5999999.99919
5999999.99744
6000000.00073
5999999.99731
6000000.00199
5999999.99804
6000000.00508
5999999.99277
5999999.99542
6000000.00433
5999999.99492
5999999.99678
5999999.99817
6000000.00187
6000000.00168
6000000.0012
6000000.00002
6000000.00105
6000000.00063
6000000.00255
5999999.99634
6000000.00215
6000000.00123
5999999.99975
5999999.99812
5999999.99992
5999999.99996
5999999.99821
5999999.99883
6000000.0014
5999999.99994
6000000.00156
6000000.00212
5999999.99739
5999999.99897
6000000.00457
5999999.99922
5999999.99973
5999999.99991
6000000.00001
6000000.00001
6000000.00014
6000000.00003
5999999.99984
6000000.00058
6000000.00015
5999999.99624
6000000.00085
5999999.99961
5999999.99985
5999999.99998
6000000.00034
5999999.99799
6000000.00352
6000000.00199
5999999.9951
6000000.00668
5999999.99383
5999999.9929
6000000.00276
6000000.00554
5999999.99165
5999999.99757
5999999.9972
5999999.99932
6000000.00159
5999999.99788
6000000.00119
5999999.99614
5999999.99703
6000000.00048
5999999.99747
6000000.00331
5999999.99802
6000000.00165
6000000.00305
5999999.99533
5999999.9953
5999999.99426
5999999.99939
6000000.00483
6000000.0021
5999999.99611
5999999.99305
6000000.00418
6000000.00308
5999999.99354
5999999.99901
6000000.00592
6000000.00444
5999999.99773
5999999.99782
6000000.00437
5999999.99967
6000000.00002
6000000.00001
5999999.99989
6000000.00089
6000000.00152
5999999.99847
5999999.99818
5999999.99865
6000000.00038
6000000.00167
5999999.99955
6000000.00066
5999999.9983
5999999.99773
6000000.00151
6000000.00056
6000000.00025
6000000.00002
6000000.00001
5999999.99992
5999999.99995
6000000.00034
5999999.99913
5999999.99878
6000000.00018
6000000.0025
5999999.99787
5999999.99987
6000000.00004
5999999.99458
6000000.00047
6000000.00051
6000000.00438
6000000.00173
5999999.99947
6000000.00139
6000000.00048
5999999.99783
6000000.00318
5999999.99657
6000000.00304
6000000.00083
6000000.00479
5999999.9992
5999999.99971
6000000.00594
6000000.00238
6000000.0036
6000000.00207
5999999.99636
5999999.9988
6000000.00289
5999999.99961
5999999.9973
5999999.99717
6000000.00245
5999999.99747
5999999.999
5999999.99686
6000000.0003
6000000.00225
5999999.99841
5999999.99852
5999999.99883
5999999.9998
5999999.99984
6000000.0014
6000000.00052
6000000.00067
5999999.99904
6000000.00151
6000000.00158
5999999.99818
5999999.99991
6000000.00011
6000000.00002
6000000.00011
6000000.00001
6000000.00103
6000000.00118
5999999.99809
6000000.00275
6000000.00187
5999999.99634
6000000.00498
5999999.99498
5999999.99815
6000000.00266
6000000.00657
6000000.00306
6000000.00246
6000000.00166
5999999.99228
5999999.99728
5999999.9986
5999999.99908
6000000.00369
6000000.0049
5999999.99331
5999999.99692
5999999.99472
6000000.00593
6000000.00271
6000000.00299
5999999.99871
6000000.00091
6000000.00075
6000000.00189
5999999.99958
5999999.99908
5999999.99972
6000000.00003
5999999.99992
6000000.00083
5999999.9992
6000000.00109
5999999.99974
6000000
5999999.99869
5999999.9962
6000000.00371
6000000.00111
5999999.99592
5999999.99483
6000000.00577
5999999.99825
5999999.99567
6000000.0017
6000000.00637
5999999.99523
6000000.00445
5999999.99882
5999999.99795
6000000.00559
5999999.99935
6000000.00015
5999999.99998
6000000
6000000.00007
6000000.00001
6000000.00007
6000000.00002
6000000.00007
6000000.0002
6000000.00025
6000000.00004
6000000.00013
5999999.99938
6000000.00103
6000000.00147
5999999.99503
6000000.00333
6000000.0051
5999999.99861
6000000.00178
6000000.00236
6000000.00226
5999999.99919
6000000.00037
5999999.99379
6000000.00123
5999999.99939
6000000.00136
6000000.00285
5999999.99902
5999999.99876
5999999.99933
5999999.99889
6000000.00026
5999999.99853
6000000.00123
6000000.00189
5999999.99832
5999999.99942
5999999.9988
6000000.00128
5999999.99975
5999999.99999
5999999.99991
5999999.99931
6000000.00078
5999999.99912
5999999.99796
6000000.00361
5999999.99643
6000000.00161
5999999.99896
5999999.99932
5999999.99982
5999999.9992
6000000.00195
5999999.99539
6000000.00201
5999999.99938
5999999.99925
6000000.00002
5999999.99944
5999999.99987
5999999.99963
6000000.00107
5999999.99852
5999999.99946
5999999.99995
5999999.99993
5999999.99992
5999999.99998
6000000.00009
5999999.99993
5999999.99971
6000000
5999999.99992
5999999.9999
6000000.00001
5999999.99947
6000000.00172
5999999.99955
6000000.00015
6000000.00012
6000000.00138
5999999.99816
6000000.00158
5999999.99632
6000000.00254
6000000.00164
6000000.002
6000000.00241
5999999.99689
5999999.99935
5999999.99812
6000000.00243
5999999.99905
5999999.99795
6000000.00157
5999999.99829
5999999.99917
5999999.99964
6000000.00015
6000000.00418
6000000.00187
6000000.00333
5999999.99908
6000000.00031
6000000.00241
5999999.99494
6000000.00083
5999999.99648
6000000.00523
6000000.00205
5999999.99424
5999999.99535
5999999.99525
6000000.00583
6000000.00191
6000000.00589
5999999.99699
5999999.99785
6000000.00079
5999999.99499
5999999.9943
5999999.99697
5999999.99821
6000000.00217
5999999.99494
5999999.99682
5999999.99333
6000000.00037
5999999.99509
5999999.998
5999999.99672
5999999.99663
5999999.99527
5999999.99469
6000000.00399
6000000.0013
6000000.0013
5999999.99421
6000000.00231
5999999.99969
6000000.00015
6000000.00107
5999999.99871
6000000.00025
5999999.99601
6000000.00317
5999999.99463
5999999.99481
6000000.00234
5999999.99438
5999999.99515
6000000.00605
5999999.99533
5999999.99388
6000000.00101
6000000.00196
5999999.99951
6000000.0013
6000000.0005
6000000.00031
5999999.99995
6000000.00065
5999999.99952
6000000.00053
5999999.99914
6000000.00021
6000000.00019
5999999.99992
5999999.99993
6000000.00004
6000000.00149
5999999.99971
5999999.99964
6000000.00127
6000000.00007
5999999.99958
5999999.99972
5999999.99948
5999999.99905
6000000.00026
6000000.00001
6000000.00033
5999999.99962
5999999.99918
6000000.00062
6000000.002
5999999.99833
6000000.00089
6000000.00278
6000000.00261
5999999.9962
5999999.99745
6000000.00315
5999999.99938
6000000.00137
6000000.00056
5999999.99678
6000000.00288
6000000.00235
6000000.00013
5999999.99859
6000000.00005
5999999.99826
6000000.00345
6000000.0003
6000000.00119
5999999.99879
5999999.99767
6000000.00622
6000000.00578
5999999.99314
5999999.99733
6000000.00184
6000000.00146
5999999.99882
6000000.00123
5999999.99994
6000000.00328
5999999.99916
6000000.00234
5999999.99967
5999999.99959
5999999.99998
6000000.00004
5999999.99997
5999999.99998
5999999.99998
6000000.00001
6000000.00004
6000000.00014
6000000
6000000
6000000.00001
5999999.99999
6000000.00019
5999999.99994
6000000.00001
5999999.99993
5999999.99996
6000000.00021
6000000.00022
5999999.99995
6000000.00014
5999999.99999
6000000
5999999.99974
6000000.0003
5999999.99995
6000000.00026
5999999.99948
5999999.99932
5999999.99923
6000000.00047
5999999.99974
6000000.00266
5999999.99942
5999999.99968
5999999.99972
6000000.00013
6000000.00003
6000000.00013
5999999.99993
6000000.00001
6000000
6000000.00008
5999999.99908
6000000.00061
5999999.99886
6000000.00341
5999999.99946
5999999.99885
6000000.00151
5999999.99885
6000000.00367
6000000.00378
5999999.99868
5999999.99977
6000000.00629
6000000.00086
6000000.0007
6000000.0009
5999999.99968
6000000.00003
6000000.00007
6000000.00026
6000000.00008
6000000.00007
6000000.00025
5999999.99912
6000000.0012
6000000.00067
6000000.00044
6000000.00026
5999999.99947
5999999.99999
5999999.99992
6000000.00002
5999999.99993
6000000.00097
5999999.99878
5999999.99733
6000000.00256
5999999.99788
6000000.00238
5999999.99648
5999999.99909
5999999.99975
5999999.99706
5999999.99974
6000000.00391
5999999.99515
5999999.99395
6000000.00186
5999999.99335
5999999.99369
6000000.00109
5999999.99718
5999999.99871
5999999.99583
6000000.00233
6000000.00225
5999999.99674
6000000.0044
5999999.99793
5999999.99782
6000000.0024
6000000.00246
5999999.99962
5999999.99933
5999999.99966
6000000.00007
5999999.99985
5999999.99939
6000000.00175
5999999.99945
6000000.00195
5999999.99858
5999999.99821
6000000.00013
5999999.99885
5999999.99944
5999999.99819
5999999.99869
5999999.99871
5999999.99988
5999999.99866
6000000.0038
5999999.9995
5999999.99792
5999999.99981
5999999.99999
5999999.99996
5999999.99983
5999999.99984
6000000.00022
5999999.99998
5999999.99996
6000000.00014
6000000.0001
5999999.99998
6000000.00007
5999999.99998
6000000.00017
6000000.00058
6000000.00051
5999999.9977
5999999.99813
6000000.00115
6000000.00018
5999999.99998
5999999.99998
6000000.00001
5999999.99989
5999999.99971
6000000.00008
6000000
5999999.99907
6000000.00071
5999999.99967
6000000.00143
5999999.9991
6000000.0002
6000000.00177
5999999.99944
6000000.00036
5999999.99948
6000000.00004
5999999.99991
6000000
5999999.99983
5999999.99991
5999999.99999
5999999.99941
5999999.99857
6000000.00021
5999999.99909
6000000.00239
5999999.998
6000000.00093
6000000.00053
5999999.99986
6000000.00033
6000000.00124
5999999.99912
5999999.99597
6000000.00358
6000000.00018
6000000.00012
6000000.00069
6000000.00178
6000000.00045
5999999.99742
6000000.00412
6000000.0031
5999999.99982
5999999.99804
6000000.00224
6000000.00168
5999999.99875
6000000.00507
6000000.00033
6000000.0025
5999999.99694
5999999.99754
6000000.00121
5999999.99913
5999999.99976
5999999.99692
6000000.0039
6000000.00099
5999999.99883
6000000.00029
5999999.99843
6000000.0033
5999999.99837
6000000.00171
5999999.99475
6000000.00618
6000000.00476
5999999.99818
6000000.00111
5999999.99303
5999999.99252
6000000.00332
6000000.0025
6000000.00453
5999999.99811
5999999.9954
6000000.00426
5999999.99617
5999999.99879
5999999.99887
5999999.99816
6000000.00105
5999999.99917
6000000.00016
5999999.99978
5999999.99949
6000000.00035
5999999.99781
6000000.00199
5999999.99965
5999999.99895
6000000.00242
5999999.99808
6000000.00126
5999999.99617
6000000.00029
5999999.99998
5999999.99964
5999999.99846
5999999.99843
6000000.00155
6000000.00165
5999999.99925
6000000.00691
6000000.00253
5999999.99424
6000000.00299
5999999.99856
6000000.00699
6000000.00517
5999999.99739
5999999.99583
5999999.99879
6000000.00644
6000000.00196
5999999.99718
5999999.99607
5999999.99537
6000000.0029
5999999.99691
5999999.99487
5999999.99814
5999999.99475
6000000.00404
5999999.99727
5999999.99667
5999999.99867
6000000.00173
5999999.99757
5999999.99747
6000000.00141
6000000.00124
5999999.99638
5999999.99762
5999999.99561
5999999.99573
5999999.99727
5999999.99853
6000000.00084
5999999.99299
5999999.99413
6000000.00174
6000000.00039
5999999.99528
5999999.99583
5999999.99504
5999999.99382
6000000.00425
5999999.99698
5999999.9923
6000000.0001
5999999.99589
6000000.00226
6000000.00514
5999999.99258
5999999.99452
5999999.9976
6000000.00547
6000000.00086
5999999.99776
6000000.00319
6000000.00556
5999999.99979
6000000.00602
5999999.99624
5999999.99362
6000000.00365
6000000.00072
5999999.9995
5999999.99465
5999999.99642
6000000.0027
5999999.99608
5999999.9984
6000000.00209
5999999.99892
6000000.00297
6000000.00711
6000000.00319
5999999.99848
5999999.9953
5999999.99725
6000000.0058
6000000.00223
5999999.99562
5999999.99712
6000000.00086
6000000.0062
6000000.00095
5999999.99893
5999999.99978
6000000.00152
5999999.9986
5999999.99909
6000000.00351
6000000.00171
5999999.99695
6000000.00268
5999999.99669
5999999.99961
5999999.99734
6000000.00041
6000000.00212
5999999.99416
6000000.00002
6000000.0011
5999999.99416
5999999.99741
6000000.00291
5999999.9981
5999999.99812
6000000.00257
5999999.9984
5999999.99659
5999999.99564
5999999.99802
5999999.99592
5999999.9993
5999999.99795
6000000.00681
5999999.99764
6000000.00034
6000000.00529
5999999.99857
6000000.00139
5999999.99995
6000000.00849
5999999.99713
6000000.00082
6000000.00633
6000000.00686
5999999.99891
5999999.99803
6000000.01001
6000000.0078
6000000.00608
5999999.99803
5999999.99805
6000000.00799
6000000.00838
6000000.00182
6000000.00672
6000000.00231
5999999.99506
6000000.00679
6000000.00783
6000000.00015
5999999.99727
6000000.00746
6000000.00258
5999999.99401
6000000.0024
6000000.00219
6000000.00909
6000000.00769
5999999.99766
6000000.00231
6000000.00714
5999999.99615
5999999.99952
6000000.00647
6000000.00919
6000000.00054
6000000.00632
6000000.00556
6000000.0049
5999999.99799
6000000.00128
6000000.00841
6000000.00952
6000000.01007
6000000.00299
6000000.00296
6000000.00643
6000000.01028
5999999.99967
6000000.00292
6000000.00575
5999999.9966
6000000.0057
6000000.00523
6000000.00987
6000000.00421
6000000.00742
6000000.00572
5999999.99357
6000000.00685
6000000.00211
5999999.99856
6000000.00875
5999999.99879
5999999.99978
5999999.99857
6000000.00039
5999999.99831
5999999.99963
5999999.99896
5999999.99952
5999999.99932
5999999.99951
5999999.99721
5999999.99771
5999999.99954
5999999.99811
6000000.00022
5999999.99823
5999999.9987
5999999.9983
6000000.00013
5999999.99791
5999999.99746
5999999.99854
5999999.99969
5999999.99856
5999999.9986
5999999.99957
5999999.99748
5999999.99846
5999999.99929
5999999.99575
5999999.99842
6000000.00025
5999999.99916
5999999.99674
5999999.99936
5999999.99744
5999999.9999
5999999.99887
5999999.99869
5999999.99671
5999999.99901
6000000.00002
5999999.99781
5999999.99942
5999999.99961
5999999.99869
5999999.99881
5999999.99913
5999999.99664
5999999.99685
5999999.99934
5999999.99994
6000000.00023
6000000.00051
5999999.99834
5999999.99893
5999999.99789
5999999.9983
5999999.99829
5999999.99873
5999999.99956
6000000.00039
6000000.00206
5999999.99831
5999999.99934
5999999.99943
5999999.99988
5999999.99975
6000000.00067
5999999.99981
5999999.99952
6000000.00028
5999999.99973
5999999.99965
5999999.99974
5999999.9998
6000000.00044
6000000.00002
5999999.99979
5999999.99961
6000000.0003
6000000.00036
5999999.99987
6000000.00028
5999999.99989
6000000.00037
5999999.9999
5999999.99983
6000000.00021
6000000.00002
6000000.00044
5999999.9999
6000000.00005
5999999.99953
6000000.00029
6000000.00047
6000000.00024
6000000.00051
5999999.99997
6000000.00052
6000000.00049
5999999.99974
6000000.00021
5999999.9999
6000000.00029
6000000.00009
5999999.99975
6000000.00079
6000000.00024
6000000.00048
6000000.00026
5999999.99957
5999999.99985
5999999.99974
6000000.00012
6000000.00007
6000000.00038
6000000.00045
5999999.9997
6000000.00003
6000000.00023
6000000.00006
6000000.00032
6000000.00014
6000000.0002
6000000.00041
5999999.99974
6000000.00055
6000000.0007
6000000.00101
6000000.00094
6000000.00106
6000000.00058
6000000.001
6000000.00083
6000000.00119
6000000.00084
6000000.00079
6000000.0009
6000000.00087
6000000.00084
6000000.00081
6000000.00091
6000000.00094
6000000.00079
6000000.00094
6000000.00111
6000000.00088
6000000.00109
6000000.00118
6000000.00071
6000000.00102
6000000.00094
6000000.00091
6000000.00073
6000000.00055
6000000.00101
6000000.00089
6000000.00088
6000000.00086
6000000.00087
6000000.00116
6000000.00073
6000000.00092
6000000.00072
6000000.00082
6000000.00062
6000000.00086
6000000.00099
6000000.00105
6000000.00099
6000000.00091
6000000.00092
6000000.00093
6000000.00077
6000000.00102
6000000.0012
6000000.00125
6000000.00076
6000000.00088
6000000.00081
6000000.00098
6000000.00097
6000000.00094
6000000.00097
6000000.00102
6000000.00099
6000000.00101
6000000.00091
6000000.0012
6000000.00132
6000000.00086
5999999.99902
5999999.9987
5999999.99882
5999999.99902
5999999.99876
5999999.99917
5999999.99883
5999999.99879
5999999.99872
5999999.99874
5999999.99886
5999999.99898
5999999.99902
5999999.99884
5999999.9986
5999999.99877
5999999.99878
5999999.99898
5999999.99886
5999999.99904
5999999.99878
5999999.99876
5999999.99914
5999999.99898
5999999.99874
5999999.9989
5999999.99934
5999999.99874
5999999.99895
5999999.99907
5999999.99901
5999999.99943
5999999.99911
5999999.99907
5999999.99891
5999999.9989
5999999.99911
5999999.99866
5999999.99861
5999999.9987
5999999.99906
5999999.9991
5999999.99885
5999999.99904
5999999.99895
5999999.99897
5999999.99927
5999999.99904
5999999.99882
5999999.999
5999999.99888
5999999.99866
5999999.99883
5999999.99866
5999999.99891
5999999.99887
5999999.99895
5999999.99897
5999999.99889
5999999.99886
5999999.99884
5999999.99903
5999999.99881
5999999.99889
5999999.9995
5999999.99935
5999999.99947