/*--------------------------------*- C++ -*----------------------------------*\
  =========                 |
  \\      /  F ield         | OpenFOAM: The Open Source CFD Toolbox
   \\    /   O peration     | Website:  https://openfoam.org
    \\  /    A nd           | Version:  6
     \\/     M anipulation  |
\*---------------------------------------------------------------------------*/
FoamFile
{
    version     2.0;
    format      ascii;
    class       volVectorField;
    location    "4.88e-05";
    object      U;
}
// * * * * * * * * * * * * * * * * * * * * * * * * * * * * * * * * * * * * * //

dimensions      [0 1 -1 0 0 0 0];

internalField   nonuniform List<vector> 
8192
(
(-88.322 0 -2.86110487324e-10)
(-88.3219999996 0 -8.83238851e-11)
(-88.3220000002 0 -7.11235935415e-11)
(-88.3220000004 0 -2.92694287989e-10)
(-88.3219999995 0 -6.50213014606e-11)
(-88.3219999997 0 1.30440163899e-12)
(-88.3220000003 0 -2.24656650652e-12)
(-88.322 0 1.24056538585e-10)
(-88.322 0 -2.76332198554e-10)
(-88.322 0 -5.87896728468e-10)
(-88.3219999999 0 -7.39568560958e-10)
(-88.322 0 3.75978548732e-10)
(-88.3220000002 0 6.72706214503e-10)
(-88.3220000001 0 -7.78492755306e-10)
(-88.3219999998 0 -6.32324052558e-10)
(-88.3219999999 0 3.73704681126e-10)
(-88.3219999998 0 3.26129209587e-10)
(-88.3219999999 0 6.94056204744e-10)
(-88.3220000002 0 -4.28471719619e-10)
(-88.322 0 -5.93268433085e-10)
(-88.3219999996 0 2.62962781234e-10)
(-88.3220000004 0 3.93086047565e-10)
(-88.3220000004 0 -6.36602098322e-10)
(-88.3219999998 0 -5.84257734731e-10)
(-88.322 0 1.81905160028e-10)
(-88.3219999998 0 1.92909517478e-10)
(-88.3219999999 0 2.42116852549e-10)
(-88.3219999999 0 2.02780881259e-10)
(-88.3220000002 0 3.24973446058e-10)
(-88.3220000002 0 -1.68951531578e-10)
(-88.322 0 2.25925540272e-10)
(-88.3219999996 0 -6.56413880799e-11)
(-88.3219999989 0 1.31887077778e-10)
(-88.322000002 0 5.62474157166e-10)
(-88.3220000028 0 -8.83441657436e-10)
(-88.3219999987 0 -6.47258322967e-10)
(-88.3219999995 0 -1.05965197008e-11)
(-88.3219999996 0 -5.77296622243e-10)
(-88.3219999985 0 1.69167834813e-10)
(-88.3220000006 0 1.84912961018e-10)
(-88.3220000001 0 -6.66288462346e-11)
(-88.3219999998 0 7.02860085865e-11)
(-88.3220000002 0 -1.49836458508e-11)
(-88.322 0 -1.54358540036e-11)
(-88.322 0 -6.02196175789e-11)
(-88.322 0 -3.98090441624e-11)
(-88.322 0 -2.06894412646e-11)
(-88.322 0 -1.97869622808e-11)
(-88.3220000001 0 3.16700394449e-11)
(-88.3219999998 0 -1.01708488977e-10)
(-88.3219999999 0 1.38546336422e-10)
(-88.3220000006 0 -6.9493263569e-11)
(-88.3219999994 0 -2.19097387124e-10)
(-88.3219999993 0 3.61671533256e-10)
(-88.3220000012 0 1.98687590085e-10)
(-88.3220000007 0 -2.05418017483e-10)
(-88.322 0 -2.89715924243e-11)
(-88.3219999998 0 -1.80252765625e-10)
(-88.3220000002 0 -4.52654478339e-11)
(-88.3219999991 0 -3.19383044424e-10)
(-88.3219999983 0 3.51978043654e-10)
(-88.3219999998 0 4.02559370109e-10)
(-88.322000001 0 3.66074846758e-10)
(-88.3220000014 0 -4.166437156e-11)
(-88.3220000001 0 -3.50845347439e-10)
(-88.3219999998 0 -9.30577810613e-11)
(-88.3220000002 0 1.40081876691e-10)
(-88.3219999996 0 1.78773865748e-11)
(-88.322 0 2.72989290169e-10)
(-88.3220000002 0 -1.2224123205e-10)
(-88.3219999994 0 5.64261549488e-11)
(-88.3220000006 0 3.98319230796e-12)
(-88.3220000014 0 -9.09633346491e-12)
(-88.3220000008 0 -6.57644410982e-11)
(-88.3219999982 0 7.31252627431e-11)
(-88.3219999971 0 -2.56760922619e-10)
(-88.3220000021 0 -2.59601704699e-11)
(-88.3220000025 0 -1.9159779373e-10)
(-88.3219999979 0 -3.26004914698e-10)
(-88.3219999982 0 3.22752935773e-10)
(-88.3219999996 0 2.45607704528e-10)
(-88.3220000017 0 1.51246168636e-10)
(-88.3220000024 0 -3.51501457927e-10)
(-88.3219999988 0 -1.99805090346e-10)
(-88.3219999984 0 -6.46293657655e-11)
(-88.3220000014 0 -2.41887011956e-11)
(-88.3220000017 0 2.1492439248e-10)
(-88.3219999986 0 -7.03028011556e-11)
(-88.3219999985 0 4.57529513791e-10)
(-88.322 0 -1.89983373824e-10)
(-88.3220000001 0 3.13905625481e-10)
(-88.3219999999 0 3.04871150916e-10)
(-88.3220000006 0 -8.28380646025e-11)
(-88.322 0 3.05534173657e-12)
(-88.3219999998 0 8.47296431341e-11)
(-88.3220000005 0 2.72871972523e-11)
(-88.3219999998 0 -2.46385782864e-10)
(-88.3220000003 0 -4.76205865533e-10)
(-88.322 0 5.87841985591e-10)
(-88.3219999995 0 6.64576189737e-10)
(-88.3220000002 0 8.34410396692e-12)
(-88.322 0 3.11728964033e-10)
(-88.322 0 -1.67307865427e-10)
(-88.322 0 -2.35915182598e-10)
(-88.322 0 1.7504765639e-10)
(-88.322 0 -9.78036207835e-11)
(-88.322 0 8.03265461458e-11)
(-88.322 0 -2.14578585653e-10)
(-88.322 0 -4.03139905025e-10)
(-88.322 0 -3.48260677062e-10)
(-88.322 0 -3.38000859102e-10)
(-88.322 0 -4.1923033711e-10)
(-88.322 0 -3.84543891688e-10)
(-88.322 0 -7.85864483334e-11)
(-88.322 0 3.13282177977e-10)
(-88.3220000001 0 -9.79319430289e-11)
(-88.3219999998 0 6.28930585707e-11)
(-88.322 0 -1.12663832342e-10)
(-88.3220000001 0 -3.00073784772e-10)
(-88.3219999999 0 4.18455679693e-10)
(-88.322 0 -1.88560544311e-10)
(-88.3220000001 0 -1.56419618385e-10)
(-88.322 0 -3.82816236151e-10)
(-88.3219999999 0 9.36073635105e-10)
(-88.322 0 3.52955131222e-10)
(-88.3220000001 0 -8.21198245053e-10)
(-88.3220000002 0 -1.126832196e-09)
(-88.322 0 -4.56048141171e-10)
(-88.3219999993 0 8.30007653115e-11)
(-88.3219999987 0 1.15349287948e-10)
(-88.322 0 -3.50489640087e-11)
(-88.3220000001 0 2.10852880645e-10)
(-88.3219999999 0 -1.73573127132e-10)
(-88.3220000001 0 1.5730883035e-10)
(-88.322 0 -4.88996115798e-11)
(-88.322 0 -1.17304573029e-10)
(-88.3220000002 0 2.45245992431e-10)
(-88.3219999998 0 5.46817916872e-10)
(-88.3220000003 0 6.99367494723e-10)
(-88.3220000002 0 -2.57461277922e-10)
(-88.322 0 -5.69817168434e-10)
(-88.3220000006 0 5.48662354275e-10)
(-88.3219999988 0 5.67634864484e-10)
(-88.3219999987 0 -3.96376104011e-10)
(-88.3220000001 0 -3.31909957974e-10)
(-88.322000001 0 -6.19921427214e-10)
(-88.3220000009 0 4.6255000487e-10)
(-88.3219999994 0 5.48040969898e-10)
(-88.3219999993 0 -2.21189243665e-10)
(-88.3219999998 0 -2.11837457988e-10)
(-88.3220000004 0 6.01442600069e-10)
(-88.3219999993 0 5.80825355927e-10)
(-88.3220000002 0 -9.58831605441e-11)
(-88.3220000001 0 -1.78318935144e-10)
(-88.3219999989 0 -9.81008835455e-11)
(-88.3220000008 0 1.0969866288e-10)
(-88.3220000008 0 -9.88695184128e-11)
(-88.3219999999 0 6.52149035242e-11)
(-88.3219999999 0 8.54880759392e-11)
(-88.3220000004 0 -2.06609408299e-12)
(-88.322 0 -4.93164221903e-10)
(-88.322 0 4.67845761934e-10)
(-88.3220000002 0 6.61842492571e-10)
(-88.322 0 -4.4342196786e-10)
(-88.3220000003 0 -7.3455797159e-10)
(-88.322 0 8.63721996981e-10)
(-88.3219999997 0 4.3389461512e-10)
(-88.3219999999 0 -3.66844277763e-10)
(-88.322 0 -4.66032096885e-10)
(-88.322 0 2.10122707579e-10)
(-88.3220000004 0 -2.94674812455e-10)
(-88.3220000011 0 -6.9733615134e-11)
(-88.3220000003 0 -3.70221376884e-10)
(-88.3219999998 0 6.30866973313e-11)
(-88.3220000001 0 -6.3947543925e-10)
(-88.3219999999 0 -6.03727832568e-10)
(-88.3219999994 0 5.40770811227e-10)
(-88.3219999985 0 2.57553115397e-11)
(-88.322 0 -4.34454576351e-10)
(-88.3220000011 0 1.86858294989e-10)
(-88.3219999994 0 -4.63757646643e-10)
(-88.3219999999 0 4.32174512307e-10)
(-88.322 0 8.92760264841e-11)
(-88.3220000004 0 -3.59927474703e-10)
(-88.3220000012 0 -3.9881521373e-10)
(-88.3220000003 0 -4.24794172715e-10)
(-88.3219999981 0 -1.7048445864e-10)
(-88.3219999978 0 -2.09111553669e-10)
(-88.322000002 0 -1.66169891497e-10)
(-88.3220000028 0 8.8577297426e-11)
(-88.3220000001 0 6.24495186297e-11)
(-88.3219999999 0 8.63524962144e-11)
(-88.322 0 6.62133101303e-10)
(-88.3220000001 0 1.98636284692e-10)
(-88.322 0 -7.00406789254e-11)
(-88.322 0 1.71635792272e-10)
(-88.322 0 -2.1050237846e-10)
(-88.322 0 4.40949493089e-11)
(-88.322 0 1.59986597265e-11)
(-88.322 0 3.97240520062e-11)
(-88.322 0 3.6022027228e-11)
(-88.322 0 1.01042262122e-10)
(-88.3219999998 0 -3.82792791629e-11)
(-88.3219999997 0 1.74733405717e-10)
(-88.3220000005 0 -1.8568474741e-11)
(-88.3220000002 0 4.31945473218e-10)
(-88.3219999998 0 3.65554437984e-10)
(-88.322 0 -3.13825357364e-10)
(-88.322 0 -2.34990270896e-10)
(-88.322 0 -3.11181380811e-10)
(-88.322 0 5.34944907779e-10)
(-88.322 0 4.69564072708e-10)
(-88.322 0 -5.31548885025e-10)
(-88.3219999999 0 -5.05563192697e-10)
(-88.322 0 3.3265736435e-10)
(-88.322 0 5.37361802045e-10)
(-88.322 0 -2.2167857493e-10)
(-88.322 0 5.9797168579e-10)
(-88.3219999995 0 -1.95921438889e-10)
(-88.3219999999 0 5.62827190704e-11)
(-88.3220000007 0 -1.02833621292e-10)
(-88.3219999996 0 -2.92949898093e-10)
(-88.3219999999 0 1.09405721525e-10)
(-88.3220000016 0 -9.54957886441e-11)
(-88.3219999988 0 6.79191603306e-12)
(-88.3219999981 0 -9.58010826028e-11)
(-88.3220000018 0 4.66391803631e-11)
(-88.3220000023 0 9.89232216273e-11)
(-88.3219999976 0 -8.0661005593e-11)
(-88.3219999977 0 3.82378431678e-10)
(-88.3220000024 0 -3.19446416842e-11)
(-88.3220000017 0 4.34008311897e-11)
(-88.3219999988 0 -8.58771544386e-11)
(-88.3219999998 0 -7.37082837526e-13)
(-88.3220000005 0 -1.00223884309e-10)
(-88.3220000002 0 2.16459854007e-10)
(-88.3219999997 0 4.33806362572e-10)
(-88.3220000005 0 3.46267644261e-10)
(-88.3220000013 0 3.65673472474e-10)
(-88.3219999977 0 2.86371054444e-10)
(-88.3219999989 0 5.45415393343e-10)
(-88.3220000019 0 1.97213410013e-10)
(-88.3219999998 0 -3.7918920076e-10)
(-88.3220000002 0 1.09914816504e-10)
(-88.3219999992 0 -2.2051693178e-10)
(-88.3219999989 0 2.37219412138e-10)
(-88.3220000016 0 6.00456633137e-10)
(-88.3220000009 0 -5.61474240466e-10)
(-88.3220000001 0 -1.90816548263e-10)
(-88.3219999997 0 4.4520397728e-10)
(-88.3219999996 0 4.50421101501e-11)
(-88.3219999998 0 -4.99358643061e-10)
(-88.3219999995 0 -1.11460042563e-09)
(-88.3219999998 0 8.58685583993e-10)
(-88.3220000001 0 1.02706040222e-09)
(-88.322 0 7.98453380463e-10)
(-88.3220000005 0 -3.21655579204e-10)
(-88.3220000001 0 -1.40057251276e-10)
(-88.322 0 2.66285389752e-10)
(-88.3220000004 0 -4.24057962232e-11)
(-88.322 0 -6.48328003812e-11)
(-88.3219999996 0 -8.42837413223e-12)
(-88.322 0 -4.47187111848e-12)
(-88.322 0 4.06419675569e-11)
(-88.322 0 1.6769417377e-11)
(-88.322 0 -9.55387981532e-12)
(-88.3220000001 0 7.53936529958e-11)
(-88.3220000002 0 -2.90009166702e-10)
(-88.3219999996 0 -3.03925824927e-10)
(-88.3219999998 0 5.01101191109e-11)
(-88.3220000003 0 -2.84241003805e-11)
(-88.322 0 3.81186925886e-11)
(-88.3220000002 0 1.7336238717e-10)
(-88.3219999994 0 1.65278666089e-10)
(-88.3219999994 0 -2.81166295341e-11)
(-88.3220000016 0 -3.9728415756e-12)
(-88.3220000012 0 3.51372903272e-11)
(-88.321999998 0 3.6674961377e-11)
(-88.3219999984 0 9.07644514096e-11)
(-88.3220000005 0 -1.28026392926e-10)
(-88.3220000001 0 1.4499140624e-10)
(-88.322 0 5.46328540347e-12)
(-88.3219999999 0 2.74477175084e-10)
(-88.3220000006 0 2.90431933564e-10)
(-88.3220000014 0 3.86661518215e-10)
(-88.3219999994 0 -3.58984245997e-11)
(-88.3219999995 0 1.46593793102e-10)
(-88.3220000005 0 4.16882730075e-10)
(-88.3220000001 0 -3.63762316733e-11)
(-88.322 0 -5.60864660777e-10)
(-88.3219999998 0 -7.825359839e-10)
(-88.3220000002 0 2.2997298968e-10)
(-88.3219999997 0 9.18033877529e-10)
(-88.3219999999 0 -1.12428962479e-09)
(-88.3220000003 0 -2.89058156999e-10)
(-88.3219999999 0 1.46204750171e-10)
(-88.322 0 4.06067593813e-10)
(-88.322 0 -1.75824274937e-10)
(-88.322 0 2.49205009381e-10)
(-88.322 0 7.92502072648e-11)
(-88.322 0 3.38284698177e-10)
(-88.322 0 -4.77897539894e-11)
(-88.3220000002 0 6.35069584806e-10)
(-88.3219999997 0 5.15307394706e-10)
(-88.3219999996 0 -4.66482389265e-10)
(-88.3220000004 0 -1.43973943824e-10)
(-88.3220000001 0 3.2297503225e-10)
(-88.3220000008 0 9.94028799284e-12)
(-88.3219999992 0 3.71483185762e-10)
(-88.3219999983 0 -4.53481841942e-10)
(-88.3220000016 0 -8.42703204583e-11)
(-88.3220000019 0 -2.49274935798e-10)
(-88.3219999992 0 1.97310302647e-10)
(-88.3219999998 0 1.12761604857e-10)
(-88.3219999998 0 -2.99408678117e-10)
(-88.3220000001 0 8.18724496801e-10)
(-88.3219999992 0 7.03108377636e-10)
(-88.3219999985 0 4.15887383465e-10)
(-88.3220000002 0 1.68336769796e-10)
(-88.3220000005 0 -3.04404753003e-11)
(-88.3220000002 0 -1.25402084956e-10)
(-88.3219999989 0 -2.41440095241e-10)
(-88.322 0 4.49159472254e-10)
(-88.3220000006 0 6.53882122883e-10)
(-88.3219999999 0 7.36650743876e-12)
(-88.3219999999 0 4.39007685329e-10)
(-88.322 0 3.23235200316e-10)
(-88.322 0 -4.60949543755e-10)
(-88.3220000001 0 2.32331838715e-11)
(-88.3219999998 0 9.73221986735e-11)
(-88.3220000003 0 -5.69881022431e-11)
(-88.3220000004 0 2.13365705893e-10)
(-88.3219999998 0 1.98239368831e-10)
(-88.3219999998 0 -5.76810444754e-10)
(-88.3219999998 0 5.17140862423e-10)
(-88.3219999996 0 4.24125782333e-10)
(-88.3219999997 0 5.64952359698e-10)
(-88.3220000004 0 1.18847228009e-10)
(-88.3220000004 0 -7.52381091702e-10)
(-88.3219999999 0 -2.61486322651e-10)
(-88.3219999998 0 9.36465780159e-10)
(-88.3219999998 0 1.13076067518e-09)
(-88.3220000004 0 -6.69810829752e-10)
(-88.3219999999 0 -6.47745267356e-10)
(-88.3219999998 0 -4.80271592988e-10)
(-88.3219999998 0 -1.08336703329e-10)
(-88.321999999 0 1.20865625524e-10)
(-88.3219999997 0 -4.97426259386e-10)
(-88.3220000014 0 5.63341722304e-10)
(-88.3220000001 0 7.92663928093e-10)
(-88.321999999 0 -1.45545111659e-10)
(-88.3220000021 0 -3.70315592508e-10)
(-88.3220000007 0 1.0289387436e-10)
(-88.3219999994 0 1.8821721094e-10)
(-88.3220000002 0 1.24769934417e-10)
(-88.3219999989 0 -1.38281361983e-10)
(-88.3220000004 0 -6.55436417226e-12)
(-88.322 0 -5.91792429362e-11)
(-88.3219999999 0 4.50864993731e-12)
(-88.3220000004 0 6.86911454662e-11)
(-88.3219999995 0 5.21014839794e-11)
(-88.322 0 -2.85462431249e-11)
(-88.322 0 2.20879970899e-11)
(-88.322 0 1.21245722656e-11)
(-88.322 0 9.8782331867e-12)
(-88.322 0 9.21649428628e-12)
(-88.3220000002 0 -9.16806335423e-11)
(-88.3219999998 0 3.17014138233e-10)
(-88.3220000002 0 -2.34796793414e-10)
(-88.3220000002 0 -7.97981486122e-11)
(-88.3219999995 0 -2.35217325896e-11)
(-88.3220000002 0 1.34913107887e-10)
(-88.3220000001 0 3.00226078095e-10)
(-88.3219999998 0 -4.32252230072e-10)
(-88.3220000012 0 -4.97492048917e-10)
(-88.3220000002 0 3.04623484595e-10)
(-88.3219999994 0 3.84175691363e-10)
(-88.3220000007 0 5.35663556089e-11)
(-88.3219999982 0 4.24649186902e-10)
(-88.3219999978 0 -9.54936868456e-11)
(-88.3220000002 0 5.11221848491e-10)
(-88.3220000008 0 -2.51077321395e-10)
(-88.322000001 0 -8.01003349893e-11)
(-88.322000001 0 -2.65889038836e-10)
(-88.3220000005 0 5.16340955695e-10)
(-88.3219999989 0 2.14169651791e-11)
(-88.3219999983 0 -3.24611976443e-10)
(-88.3220000013 0 5.66988486593e-11)
(-88.3220000004 0 3.46286414525e-11)
(-88.3219999989 0 5.47922061767e-11)
(-88.3220000019 0 -9.96446249459e-11)
(-88.3220000006 0 6.23957768425e-11)
(-88.321999999 0 -1.88325123324e-10)
(-88.3220000002 0 -1.71612358853e-10)
(-88.3219999998 0 4.08013327311e-10)
(-88.3219999996 0 -3.82708048824e-10)
(-88.3220000013 0 -3.18853479637e-10)
(-88.3219999992 0 -5.9976924934e-11)
(-88.3219999983 0 -1.22667590045e-10)
(-88.3219999999 0 1.81040583263e-11)
(-88.3220000008 0 -2.83235682843e-10)
(-88.3220000021 0 -1.40680108523e-10)
(-88.322 0 4.45136494793e-11)
(-88.3219999982 0 -4.04075445415e-12)
(-88.3219999984 0 -2.68576226168e-12)
(-88.3220000012 0 -4.0098395699e-11)
(-88.322000002 0 2.81789949478e-12)
(-88.322 0 -3.7678024435e-11)
(-88.321999999 0 -7.81355704952e-11)
(-88.3219999989 0 4.98210121271e-11)
(-88.3220000007 0 -3.5522154227e-10)
(-88.3219999996 0 -3.71096485607e-10)
(-88.3219999988 0 -6.16769087081e-10)
(-88.3220000009 0 3.41213847697e-10)
(-88.3220000019 0 -4.77774387793e-10)
(-88.322 0 -3.84941029894e-10)
(-88.3219999989 0 8.48200518873e-10)
(-88.3219999999 0 2.10890359436e-10)
(-88.3220000005 0 -1.2003621272e-10)
(-88.3220000005 0 -4.94277735367e-10)
(-88.3219999996 0 -1.44945787196e-10)
(-88.3219999999 0 6.46061146189e-10)
(-88.322 0 -2.03245047946e-10)
(-88.3219999999 0 -7.66818853503e-11)
(-88.3220000001 0 5.87753663983e-11)
(-88.322 0 9.63359130365e-11)
(-88.322 0 -2.22894378316e-10)
(-88.322 0 7.25390064863e-11)
(-88.322 0 4.18702285565e-11)
(-88.3220000001 0 1.27556172826e-11)
(-88.3219999996 0 -9.36376218373e-12)
(-88.322 0 -4.79325904827e-11)
(-88.3220000005 0 3.36464983479e-11)
(-88.3219999999 0 -4.54015742246e-11)
(-88.3219999997 0 1.33746289982e-10)
(-88.3220000002 0 -5.02366110203e-11)
(-88.3220000004 0 6.29986548032e-11)
(-88.3219999998 0 -6.69940222516e-11)
(-88.3220000001 0 4.91195699353e-11)
(-88.3220000002 0 3.20230112179e-10)
(-88.3219999997 0 2.71640467514e-12)
(-88.3219999998 0 1.03601482039e-10)
(-88.3220000002 0 4.8798948908e-10)
(-88.3219999999 0 -5.36601214747e-10)
(-88.3219999996 0 -5.17135875106e-10)
(-88.3219999997 0 3.42223578702e-11)
(-88.3220000002 0 2.75611606618e-10)
(-88.3220000006 0 -1.01515666059e-10)
(-88.322 0 1.02072045797e-10)
(-88.3220000006 0 2.33158832055e-10)
(-88.3219999998 0 -4.18336585814e-10)
(-88.3219999998 0 -6.83871391696e-10)
(-88.3219999999 0 1.8649179609e-10)
(-88.3220000002 0 -4.43926528684e-10)
(-88.3219999999 0 -3.58956861717e-10)
(-88.3220000001 0 4.55868239454e-10)
(-88.3220000005 0 -4.28494525518e-11)
(-88.3219999985 0 -1.2278106015e-10)
(-88.3220000008 0 9.10904856941e-11)
(-88.3220000019 0 -1.97275596835e-10)
(-88.3219999992 0 -1.03893070873e-10)
(-88.3219999993 0 4.04306556002e-10)
(-88.3219999996 0 -5.15339765551e-10)
(-88.322 0 -3.64116072069e-10)
(-88.322 0 -5.4920662818e-10)
(-88.3219999998 0 1.84033253119e-11)
(-88.3220000002 0 4.87241737657e-10)
(-88.322 0 2.4326227438e-11)
(-88.3219999999 0 -3.93092443202e-10)
(-88.3219999998 0 -7.51923183839e-10)
(-88.3220000004 0 2.23359995477e-10)
(-88.322 0 1.9194602739e-10)
(-88.3219999996 0 2.61965133155e-10)
(-88.3220000004 0 -2.74217503933e-10)
(-88.3219999998 0 -3.10097156769e-10)
(-88.3220000002 0 7.77688914048e-11)
(-88.322 0 -5.29836514562e-10)
(-88.322 0 -5.08504562899e-10)
(-88.3220000003 0 -9.18650085555e-11)
(-88.3219999994 0 4.24184818099e-10)
(-88.3219999997 0 -8.79989563376e-11)
(-88.3220000014 0 -1.04752791394e-10)
(-88.3220000017 0 -1.21336620212e-10)
(-88.3219999989 0 -5.53678193533e-11)
(-88.321999998 0 2.45501078704e-10)
(-88.3220000002 0 -5.86424366029e-11)
(-88.3220000014 0 1.03306861747e-10)
(-88.3219999999 0 -3.83795193198e-11)
(-88.3219999992 0 -2.71121602264e-11)
(-88.3220000006 0 4.80029007138e-11)
(-88.322 0 -1.37795051638e-11)
(-88.3219999995 0 -1.35234939324e-11)
(-88.3220000002 0 -5.01518316129e-11)
(-88.3220000001 0 -2.31219175683e-11)
(-88.3220000002 0 5.11512962898e-11)
(-88.3219999998 0 -2.0832686676e-10)
(-88.3220000002 0 6.40189506078e-11)
(-88.322 0 1.33598835023e-10)
(-88.3219999995 0 -1.80620947789e-10)
(-88.3220000003 0 -2.24810789554e-10)
(-88.3220000001 0 1.37943212779e-10)
(-88.3219999998 0 6.28921118714e-10)
(-88.3220000006 0 6.12432377598e-10)
(-88.3220000003 0 -2.77129717388e-10)
(-88.3219999999 0 -3.8804240507e-10)
(-88.3219999998 0 -2.64917962905e-10)
(-88.3219999995 0 -4.81645305945e-10)
(-88.3219999998 0 1.79665594472e-10)
(-88.3219999991 0 -4.56223609548e-10)
(-88.3219999992 0 3.57747838722e-10)
(-88.3220000013 0 -2.02380549374e-10)
(-88.3220000004 0 1.58518527828e-10)
(-88.3220000003 0 -3.18892340635e-10)
(-88.322 0 3.3154675447e-11)
(-88.322 0 -5.3114852604e-11)
(-88.322 0 7.19562649496e-12)
(-88.322 0 -7.99040034179e-11)
(-88.322 0 9.59225105089e-11)
(-88.322 0 4.70479481474e-11)
(-88.322 0 -1.02015812377e-10)
(-88.3220000001 0 1.84295702048e-10)
(-88.322 0 1.63742140739e-10)
(-88.322 0 -4.88114652839e-10)
(-88.322 0 5.75127690321e-10)
(-88.322 0 5.41291307698e-10)
(-88.322 0 6.61768397274e-11)
(-88.322 0 1.22378115622e-10)
(-88.322 0 -4.75424537909e-11)
(-88.322 0 9.70619250327e-11)
(-88.322 0 -1.21926207351e-11)
(-88.322 0 -1.4779156431e-12)
(-88.322 0 1.81634270025e-11)
(-88.322 0 -2.81916567475e-11)
(-88.322 0 1.50503941155e-11)
(-88.322 0 -2.19655027125e-11)
(-88.322 0 1.93114525079e-10)
(-88.322 0 -7.90041046133e-11)
(-88.322 0 -4.66060559119e-11)
(-88.322 0 1.01920009364e-10)
(-88.322 0 -2.44066875086e-11)
(-88.322 0 5.20939694584e-11)
(-88.322 0 -2.26325254706e-10)
(-88.322 0 5.36803837886e-11)
(-88.322 0 -1.10599038934e-10)
(-88.322 0 -1.13261099422e-11)
(-88.322 0 1.90586047598e-10)
(-88.3220000004 0 -1.99533109128e-10)
(-88.3219999999 0 1.80006773534e-10)
(-88.3219999996 0 -2.17104659383e-10)
(-88.3220000001 0 -7.53765886227e-10)
(-88.322 0 1.90285726372e-10)
(-88.322 0 3.32035178471e-10)
(-88.322 0 -4.22960369453e-11)
(-88.322 0 -9.47360073652e-11)
(-88.322 0 2.27507623503e-10)
(-88.322 0 -1.05032254393e-10)
(-88.322 0 -3.81127525594e-11)
(-88.322 0 -3.19882701487e-11)
(-88.322 0 -7.08741107153e-11)
(-88.322 0 1.65317716454e-10)
(-88.3219999998 0 -1.12447530518e-11)
(-88.3220000004 0 2.25085773913e-10)
(-88.3220000004 0 -6.11861939829e-11)
(-88.3219999995 0 -8.62211269e-11)
(-88.3219999987 0 -1.94723094454e-10)
(-88.3219999989 0 7.28679983649e-11)
(-88.3220000019 0 1.39790843582e-10)
(-88.3220000023 0 -2.3998990309e-10)
(-88.3219999996 0 -1.11240206221e-10)
(-88.322 0 -3.02833408128e-11)
(-88.3219999993 0 -1.28578290122e-10)
(-88.3219999998 0 6.62169385942e-11)
(-88.3219999993 0 6.139756457e-11)
(-88.3219999992 0 -1.05159573567e-09)
(-88.3220000006 0 -9.27971707863e-10)
(-88.322 0 -2.43064379664e-10)
(-88.3219999996 0 1.63778822446e-10)
(-88.3220000001 0 1.25522809595e-10)
(-88.3219999999 0 -1.82520212941e-10)
(-88.3219999999 0 -6.06378003207e-11)
(-88.3219999997 0 8.71736929348e-11)
(-88.3219999999 0 6.50067792146e-11)
(-88.3220000003 0 -1.50358421919e-10)
(-88.3219999999 0 -1.71125014874e-10)
(-88.322 0 -3.27931906829e-11)
(-88.322 0 -8.59438474696e-11)
(-88.322 0 1.95480385134e-11)
(-88.3219999999 0 -3.57857060343e-11)
(-88.3220000002 0 -1.71433048032e-11)
(-88.3220000001 0 -2.28043921065e-11)
(-88.3219999998 0 -3.52883421611e-11)
(-88.322 0 -4.56172593497e-11)
(-88.322 0 -4.40321269699e-11)
(-88.322 0 -3.5666724129e-12)
(-88.322 0 5.52724260349e-11)
(-88.322 0 -1.72850762447e-10)
(-88.3219999998 0 -7.50091099694e-11)
(-88.3219999998 0 5.47517748063e-10)
(-88.322 0 3.76263380416e-10)
(-88.3220000001 0 -4.84284060979e-10)
(-88.3220000001 0 -3.58175209466e-10)
(-88.322 0 -1.04830906429e-10)
(-88.3219999998 0 7.70775259406e-11)
(-88.3220000002 0 -1.86678381207e-10)
(-88.3220000004 0 1.44589774809e-10)
(-88.322 0 -1.55364989573e-10)
(-88.3220000002 0 -4.11351840424e-10)
(-88.3219999996 0 -3.30864545955e-10)
(-88.321999999 0 3.01563897291e-10)
(-88.3220000017 0 -4.45506271671e-10)
(-88.3220000017 0 -4.80080073807e-10)
(-88.321999999 0 -4.2272758585e-10)
(-88.3219999998 0 4.63573020961e-10)
(-88.3219999993 0 3.39266053142e-10)
(-88.3219999991 0 -3.82604874503e-10)
(-88.3220000003 0 -2.43227654289e-10)
(-88.322 0 5.52126046959e-10)
(-88.322 0 1.29435754998e-10)
(-88.322 0 -3.77876956208e-10)
(-88.322 0 -5.93498595295e-10)
(-88.322 0 2.40357963682e-10)
(-88.3220000002 0 -2.43148569793e-10)
(-88.3219999999 0 -1.034767036e-10)
(-88.3219999996 0 -5.23697105862e-10)
(-88.322 0 4.23061776483e-10)
(-88.3220000002 0 -1.4335434377e-10)
(-88.322 0 7.1494625655e-11)
(-88.3220000006 0 3.29430588768e-10)
(-88.3219999998 0 -4.35054417113e-10)
(-88.3219999992 0 -1.00962583501e-09)
(-88.3220000011 0 -1.21289427526e-09)
(-88.3220000008 0 -4.55441447581e-10)
(-88.3219999995 0 1.05801487319e-09)
(-88.3219999998 0 6.05686579028e-10)
(-88.3219999992 0 -7.73804969759e-11)
(-88.3219999994 0 -7.54877260911e-10)
(-88.3220000014 0 7.96877496955e-10)
(-88.3220000012 0 -4.09175835759e-11)
(-88.3219999996 0 -1.91236904223e-10)
(-88.3219999994 0 -4.09199993649e-11)
(-88.322 0 1.09641273572e-10)
(-88.3220000007 0 4.85650281059e-11)
(-88.3220000004 0 2.89218338024e-10)
(-88.3219999995 0 -2.40395539769e-10)
(-88.3219999998 0 2.07386208353e-10)
(-88.3220000005 0 -2.78066350316e-10)
(-88.3220000004 0 2.57730459349e-10)
(-88.3219999998 0 2.9434316672e-10)
(-88.322 0 -2.42791563011e-10)
(-88.3219999998 0 -4.31380361415e-10)
(-88.322 0 -1.30487851902e-10)
(-88.3220000001 0 -4.83908775302e-10)
(-88.322 0 -4.55293019777e-10)
(-88.322 0 -1.32162537411e-10)
(-88.322 0 7.35047942801e-11)
(-88.322 0 4.61545109406e-11)
(-88.322 0 1.14578678403e-10)
(-88.3219999999 0 -3.79948639065e-10)
(-88.3220000004 0 -7.59975755894e-10)
(-88.3220000002 0 3.45008276683e-10)
(-88.3219999985 0 3.33532665028e-10)
(-88.3219999991 0 7.96813891557e-10)
(-88.3220000021 0 -5.03409821924e-10)
(-88.3220000014 0 -4.95038029281e-10)
(-88.3219999992 0 3.22649380368e-10)
(-88.3219999992 0 3.0810226202e-10)
(-88.3220000001 0 3.05110742383e-10)
(-88.322 0 1.02674100908e-10)
(-88.322 0 3.53488544302e-10)
(-88.3220000011 0 1.04243586324e-10)
(-88.3220000003 0 5.04579665926e-11)
(-88.3219999986 0 9.86232119515e-11)
(-88.3220000002 0 -1.48076384609e-10)
(-88.3220000015 0 -4.00173895482e-10)
(-88.3220000004 0 5.66360209e-10)
(-88.3219999979 0 8.47101088521e-10)
(-88.3219999981 0 5.45010702318e-10)
(-88.3220000017 0 7.71796790112e-10)
(-88.3220000011 0 -5.5414945174e-10)
(-88.3219999983 0 -5.31581403503e-11)
(-88.3219999993 0 4.06858560059e-11)
(-88.3220000019 0 -7.38190479646e-11)
(-88.3220000014 0 6.36707783103e-11)
(-88.3219999988 0 -1.12254562937e-10)
(-88.3219999993 0 5.39157009888e-11)
(-88.3220000006 0 -1.25739275897e-10)
(-88.3220000006 0 -3.16828296934e-10)
(-88.3219999988 0 2.54242753625e-10)
(-88.321999999 0 3.5895958191e-10)
(-88.3220000011 0 4.78161699188e-10)
(-88.3219999994 0 -3.52332423963e-10)
(-88.3220000005 0 -3.54946637515e-10)
(-88.3220000012 0 7.81145188278e-10)
(-88.3220000004 0 1.25236976835e-10)
(-88.3220000009 0 1.20753884227e-10)
(-88.3219999979 0 3.6096167869e-10)
(-88.3219999975 0 5.68490651921e-10)
(-88.3220000022 0 6.93106966848e-10)
(-88.3220000018 0 -2.59691411867e-10)
(-88.321999998 0 -4.40536804931e-10)
(-88.3219999978 0 -1.94934790797e-10)
(-88.3220000011 0 4.59209328042e-10)
(-88.3220000006 0 4.37482570786e-10)
(-88.3219999993 0 3.08772416415e-10)
(-88.322 0 -2.12876806943e-10)
(-88.3219999998 0 -2.26867941412e-10)
(-88.3220000004 0 1.5025046983e-10)
(-88.322 0 -2.63728453614e-11)
(-88.3219999998 0 -7.90502679029e-11)
(-88.3219999998 0 -1.31060756465e-10)
(-88.3219999992 0 1.51266232702e-10)
(-88.3220000009 0 1.22541334222e-10)
(-88.3220000015 0 4.47956928454e-11)
(-88.3219999997 0 -4.16360662782e-11)
(-88.322 0 -3.69185615531e-10)
(-88.3220000005 0 -2.35905577192e-11)
(-88.3219999996 0 -9.69962869008e-11)
(-88.321999999 0 -1.20825058629e-10)
(-88.3219999995 0 8.73512003307e-11)
(-88.3219999999 0 -1.2705043845e-10)
(-88.3220000008 0 -1.15799529421e-11)
(-88.3220000018 0 -3.96988652203e-12)
(-88.3219999987 0 -7.11457605348e-11)
(-88.3219999978 0 2.01067695837e-10)
(-88.3219999989 0 -2.41768052354e-12)
(-88.3220000016 0 -3.78746709139e-10)
(-88.3220000026 0 -2.4115535643e-10)
(-88.3219999986 0 3.37646565737e-10)
(-88.3219999985 0 4.89308451073e-10)
(-88.322 0 1.03577006706e-10)
(-88.3220000001 0 -4.76064111038e-11)
(-88.3220000001 0 1.907099359e-10)
(-88.3220000004 0 -1.02738655348e-10)
(-88.3220000005 0 1.6762996033e-10)
(-88.3220000001 0 4.16667015498e-10)
(-88.322 0 3.27745474427e-10)
(-88.3219999999 0 -2.90701887699e-10)
(-88.3220000004 0 5.48621936618e-10)
(-88.3219999994 0 2.67303832167e-10)
(-88.3219999989 0 6.618210805e-10)
(-88.3220000001 0 -5.19766636957e-10)
(-88.3220000015 0 -3.42026828879e-10)
(-88.3220000007 0 5.33261512555e-10)
(-88.3219999992 0 1.98516351111e-10)
(-88.322 0 -5.65254797685e-10)
(-88.322 0 -1.22802983062e-10)
(-88.3220000002 0 3.59581476752e-10)
(-88.322 0 6.21692768237e-10)
(-88.322 0 -4.20388124247e-10)
(-88.3220000009 0 2.39922117235e-10)
(-88.3219999992 0 7.35805006482e-11)
(-88.3219999982 0 5.36724214783e-10)
(-88.3219999996 0 -4.5104472619e-10)
(-88.3220000017 0 2.77062880109e-11)
(-88.3220000017 0 1.66274338737e-10)
(-88.3219999983 0 -6.06542992299e-10)
(-88.3219999989 0 1.18550262681e-10)
(-88.3220000005 0 8.0861518464e-10)
(-88.3220000006 0 7.76865008342e-10)
(-88.322 0 4.93651797168e-10)
(-88.321999999 0 -4.41861997237e-10)
(-88.3220000013 0 -6.21077522241e-10)
(-88.3220000014 0 5.24249316676e-10)
(-88.3219999994 0 5.23530039058e-10)
(-88.3219999996 0 -4.29006777197e-10)
(-88.322 0 -5.37207644041e-10)
(-88.3219999999 0 1.39688702047e-10)
(-88.322 0 -1.78121595396e-10)
(-88.322 0 -4.44455617289e-11)
(-88.322 0 1.35671268475e-10)
(-88.322 0 -2.41622218937e-10)
(-88.322 0 1.82018721591e-10)
(-88.322 0 -1.33513266159e-10)
(-88.322 0 1.50955363333e-10)
(-88.322 0 -2.41921758046e-10)
(-88.322 0 -1.53099439212e-10)
(-88.3220000002 0 -2.31025308836e-10)
(-88.3220000006 0 1.73589951977e-11)
(-88.3219999999 0 3.83145339249e-10)
(-88.3219999995 0 1.85346339444e-10)
(-88.3220000002 0 -1.46769142241e-10)
(-88.3219999997 0 -3.02814619049e-10)
(-88.322 0 1.58244232986e-10)
(-88.3220000002 0 2.11364794522e-10)
(-88.3219999997 0 -2.60468678538e-10)
(-88.322 0 4.30571037988e-10)
(-88.322 0 7.56583897878e-10)
(-88.3220000001 0 -3.21713724428e-10)
(-88.3219999997 0 -3.43266617739e-10)
(-88.3219999996 0 -8.23628387801e-10)
(-88.3220000006 0 4.12720636919e-10)
(-88.322 0 4.52100996584e-10)
(-88.3219999998 0 -3.50219931729e-10)
(-88.3220000002 0 -3.15465164491e-10)
(-88.322 0 -3.58715820154e-10)
(-88.322 0 -2.33315405289e-10)
(-88.322 0 -2.39139803688e-10)
(-88.322 0 -1.19148303406e-10)
(-88.322 0 1.2576655752e-10)
(-88.322 0 1.31833937438e-10)
(-88.3219999997 0 -1.55926686762e-10)
(-88.3220000003 0 3.81954296493e-10)
(-88.3220000003 0 -3.15589375725e-10)
(-88.3219999995 0 -7.56475854051e-10)
(-88.322 0 -5.92105231537e-10)
(-88.3219999997 0 -1.55011466657e-10)
(-88.3220000002 0 -4.08979118866e-11)
(-88.3220000005 0 -4.85865217658e-10)
(-88.3219999999 0 2.37518449531e-10)
(-88.322 0 3.76929108003e-10)
(-88.322 0 -3.86026953856e-10)
(-88.3220000003 0 7.3569510187e-11)
(-88.3220000002 0 -5.34548595445e-10)
(-88.3219999997 0 -4.67700071822e-10)
(-88.322 0 1.59062864666e-10)
(-88.3219999999 0 -8.40530782579e-10)
(-88.322 0 -5.12054906441e-10)
(-88.3219999999 0 -5.12327608526e-10)
(-88.3220000007 0 2.30431525156e-10)
(-88.3220000006 0 2.96176623335e-10)
(-88.3219999985 0 -6.05728979647e-10)
(-88.3219999991 0 -1.3532129661e-10)
(-88.3220000015 0 -5.13392087391e-10)
(-88.3220000003 0 2.73482178978e-10)