/*--------------------------------*- C++ -*----------------------------------*\
  =========                 |
  \\      /  F ield         | OpenFOAM: The Open Source CFD Toolbox
   \\    /   O peration     | Website:  https://openfoam.org
    \\  /    A nd           | Version:  6
     \\/     M anipulation  |
\*---------------------------------------------------------------------------*/
FoamFile
{
    version     2.0;
    format      ascii;
    class       volVectorField;
    location    "2.7e-05";
    object      U;
}
// * * * * * * * * * * * * * * * * * * * * * * * * * * * * * * * * * * * * * //

dimensions      [0 1 -1 0 0 0 0];

internalField   nonuniform List<vector> 
8192
(
(-88.3220000002 0 -1.74859253546e-10)
(-88.3219999997 0 -2.50976591851e-11)
(-88.322 0 -3.59830278613e-11)
(-88.322 0 -4.21304827196e-11)
(-88.322 0 -8.84574690437e-12)
(-88.322 0 -1.65399204231e-12)
(-88.322 0 -1.22582375074e-12)
(-88.322 0 -5.29934961174e-12)
(-88.322 0 -4.38221910493e-11)
(-88.322 0 -2.03820654729e-10)
(-88.322 0 -1.68536032614e-10)
(-88.322 0 8.97206559432e-11)
(-88.322 0 1.74618965119e-10)
(-88.322 0 -1.43583048162e-10)
(-88.322 0 -3.1778736136e-10)
(-88.322 0 8.77619610472e-11)
(-88.322 0 -3.25219041631e-11)
(-88.322 0 1.67140497144e-10)
(-88.322 0 -2.21652072226e-10)
(-88.322 0 -1.38876050104e-10)
(-88.322 0 1.7018658586e-10)
(-88.322 0 1.67694668992e-10)
(-88.322 0 -6.88810542069e-11)
(-88.322 0 -1.02504033698e-10)
(-88.322 0 2.10595013766e-11)
(-88.322 0 1.34209019649e-11)
(-88.322 0 1.82029605465e-11)
(-88.322 0 1.81014196202e-11)
(-88.322 0 1.50557050256e-11)
(-88.322 0 -1.55365157062e-11)
(-88.3219999999 0 3.79756446638e-11)
(-88.322 0 2.10969950351e-11)
(-88.3219999997 0 -1.68413304222e-11)
(-88.3220000002 0 1.86254997929e-10)
(-88.3220000007 0 -1.28998544177e-10)
(-88.3219999997 0 -1.6158937848e-10)
(-88.322 0 1.05438837104e-11)
(-88.3219999999 0 -1.76816157156e-10)
(-88.3219999996 0 7.65724699893e-11)
(-88.3220000002 0 6.08929953722e-12)
(-88.322 0 1.53403096576e-11)
(-88.322 0 -1.81995050017e-12)
(-88.322 0 -1.02023000388e-11)
(-88.322 0 -4.55648595376e-12)
(-88.322 0 -2.35549115219e-11)
(-88.322 0 -8.65491556221e-12)
(-88.322 0 -4.35382160069e-12)
(-88.322 0 -9.53760382666e-13)
(-88.322 0 1.62304589029e-12)
(-88.322 0 -1.18064787523e-11)
(-88.322 0 -1.68529349705e-12)
(-88.322 0 -1.04273528859e-11)
(-88.322 0 -1.46604421321e-11)
(-88.3219999999 0 4.25375296005e-11)
(-88.3220000002 0 4.13987138973e-11)
(-88.3220000001 0 -6.74178935068e-11)
(-88.3219999999 0 -7.56247232181e-12)
(-88.322 0 -3.33373132788e-11)
(-88.322 0 -1.36777783058e-11)
(-88.3219999998 0 -2.66177786943e-11)
(-88.3219999996 0 8.83225593955e-11)
(-88.3219999998 0 1.71836236359e-10)
(-88.3220000002 0 1.74409856952e-10)
(-88.3220000007 0 7.57133465005e-11)
(-88.322 0 6.3054695257e-11)
(-88.322 0 -7.28926278254e-12)
(-88.322 0 1.79941363583e-11)
(-88.322 0 8.97377999583e-12)
(-88.322 0 9.58615449465e-12)
(-88.322 0 -2.26932695804e-12)
(-88.322 0 -2.62604938605e-13)
(-88.3220000001 0 9.78100595162e-14)
(-88.3220000004 0 -8.39217409176e-13)
(-88.3220000002 0 -1.14249777232e-11)
(-88.3219999994 0 -1.59361485597e-12)
(-88.3219999993 0 -2.1347743345e-11)
(-88.3220000004 0 -2.11295903902e-12)
(-88.322000001 0 -1.10250552453e-11)
(-88.3219999996 0 -4.5704939612e-11)
(-88.3219999995 0 2.29471484309e-11)
(-88.3219999999 0 9.84680658561e-14)
(-88.3220000004 0 1.58058238786e-11)
(-88.3220000006 0 -3.13777324783e-11)
(-88.3219999992 0 -1.89235059995e-11)
(-88.3219999994 0 4.80496779733e-13)
(-88.3220000005 0 2.42405394493e-11)
(-88.3220000005 0 4.16872722131e-11)
(-88.3219999998 0 -2.95833099519e-11)
(-88.3219999998 0 1.38052188999e-10)
(-88.322 0 -9.88519850326e-11)
(-88.322 0 1.11249501678e-10)
(-88.322 0 9.72929721077e-11)
(-88.322 0 6.16393950262e-11)
(-88.322 0 2.99710098655e-11)
(-88.322 0 -3.17370797805e-12)
(-88.322 0 -2.40790313086e-11)
(-88.322 0 3.27168420934e-12)
(-88.322 0 -1.73558018674e-10)
(-88.322 0 9.73473577007e-11)
(-88.322 0 1.39454068259e-10)
(-88.322 0 -2.23084148173e-11)
(-88.322 0 7.68967010372e-11)
(-88.322 0 -7.16117314939e-11)
(-88.322 0 -9.67987923152e-12)
(-88.322 0 3.13288730847e-12)
(-88.322 0 -2.06597486461e-12)
(-88.322 0 -8.8261078663e-12)
(-88.322 0 1.12411882627e-11)
(-88.322 0 -1.23448341622e-10)
(-88.322 0 -7.3330699898e-11)
(-88.322 0 -1.11795159246e-10)
(-88.322 0 -8.72253059246e-11)
(-88.322 0 -9.24595324804e-11)
(-88.322 0 -6.62666968775e-11)
(-88.322 0 8.4141123694e-11)
(-88.322 0 1.67187146623e-11)
(-88.322 0 5.57305380844e-12)
(-88.322 0 1.25489076914e-11)
(-88.322 0 -8.15941991704e-11)
(-88.322 0 1.76303740623e-10)
(-88.322 0 -5.05392267528e-11)
(-88.322 0 -1.77473444328e-10)
(-88.322 0 -2.29124205444e-10)
(-88.322 0 1.07959488609e-10)
(-88.322 0 4.89428632878e-11)
(-88.322 0 -3.76447287307e-10)
(-88.322 0 -3.48298503911e-10)
(-88.322 0 -1.42198324408e-10)
(-88.3219999999 0 1.02497965997e-11)
(-88.3219999998 0 4.91145558009e-12)
(-88.322 0 -2.80010377777e-12)
(-88.322 0 2.58642112595e-11)
(-88.322 0 5.92719022354e-12)
(-88.322 0 1.01266160423e-11)
(-88.322 0 2.48687158861e-12)
(-88.322 0 8.8663466524e-12)
(-88.322 0 3.11048518952e-11)
(-88.322 0 1.9644812314e-10)
(-88.322 0 1.63150403438e-10)
(-88.322 0 -8.56394262422e-11)
(-88.322 0 -1.78457004409e-10)
(-88.3220000001 0 1.23012887554e-10)
(-88.3219999999 0 3.01917182711e-10)
(-88.3219999999 0 -8.70741424001e-11)
(-88.322 0 3.06674199508e-11)
(-88.322 0 -1.52421458385e-10)
(-88.3220000001 0 2.16550240536e-10)
(-88.3219999999 0 1.28112451367e-10)
(-88.3219999999 0 -1.69351409455e-10)
(-88.3219999999 0 -1.53602844643e-10)
(-88.3220000001 0 8.53429372234e-11)
(-88.3219999998 0 1.03433941844e-10)
(-88.3220000001 0 -3.3642045302e-12)
(-88.322 0 -1.36888909254e-11)
(-88.3219999996 0 -1.02954553127e-12)
(-88.3220000001 0 -8.00405573763e-13)
(-88.3220000002 0 7.13534768495e-11)
(-88.3220000001 0 -5.70720506975e-11)
(-88.322 0 6.15685061109e-11)
(-88.322 0 4.04345799172e-12)
(-88.322 0 -6.38693511304e-11)
(-88.322 0 9.26600183461e-11)
(-88.322 0 1.77006726443e-10)
(-88.322 0 -1.91256925381e-11)
(-88.3220000001 0 -1.51817419292e-10)
(-88.322 0 1.91303153503e-10)
(-88.3219999998 0 1.9856007207e-10)
(-88.322 0 -2.09360966959e-10)
(-88.322 0 -1.47858033396e-10)
(-88.322 0 -2.61588787873e-11)
(-88.322 0 -6.60018766603e-11)
(-88.3220000003 0 -2.42177627193e-11)
(-88.3220000002 0 -4.69383696262e-11)
(-88.3219999999 0 7.7465858455e-12)
(-88.322 0 -1.20541286267e-10)
(-88.3219999999 0 -2.72054496422e-10)
(-88.322 0 7.08098871135e-11)
(-88.3219999997 0 2.66541111264e-12)
(-88.3219999998 0 -5.37570970903e-11)
(-88.3220000002 0 5.71949940022e-11)
(-88.322 0 -1.36462636412e-10)
(-88.3220000001 0 9.3422169315e-11)
(-88.3219999999 0 -1.73155515359e-11)
(-88.3220000001 0 -1.14020096228e-10)
(-88.3220000006 0 -8.55670362295e-11)
(-88.3220000003 0 -7.0570035287e-11)
(-88.3219999994 0 -5.32244391233e-11)
(-88.3219999993 0 -4.413576358e-11)
(-88.3220000006 0 -3.56633809337e-11)
(-88.3220000006 0 1.97057014619e-11)
(-88.3219999997 0 -1.96991374887e-12)
(-88.3219999999 0 8.4344889508e-12)
(-88.322 0 1.21645910265e-10)
(-88.322 0 3.50147189801e-11)
(-88.322 0 1.46294699158e-11)
(-88.322 0 2.2755418952e-11)
(-88.322 0 -1.06905971059e-11)
(-88.322 0 -6.19215864037e-13)
(-88.322 0 1.06175227402e-12)
(-88.322 0 9.5518116072e-12)
(-88.322 0 3.61362073712e-12)
(-88.322 0 2.33512703687e-11)
(-88.322 0 6.7692857165e-12)
(-88.322 0 9.31285848207e-12)
(-88.322 0 8.94809892957e-12)
(-88.322 0 3.15168818591e-11)
(-88.322 0 5.40742377976e-11)
(-88.322 0 -2.84245781008e-11)
(-88.322 0 2.23385765934e-13)
(-88.322 0 -2.78480483397e-11)
(-88.322 0 3.001454527e-11)
(-88.322 0 5.47390109795e-11)
(-88.322 0 -9.76067081755e-11)
(-88.322 0 -2.83453113807e-10)
(-88.322 0 7.02181537645e-11)
(-88.322 0 1.03805638174e-10)
(-88.322 0 -6.95924589892e-11)
(-88.322 0 1.5284111569e-10)
(-88.322 0 -7.98567162576e-11)
(-88.3219999999 0 -6.57314738808e-11)
(-88.3220000001 0 -6.03455279812e-11)
(-88.322 0 -2.46721020298e-11)
(-88.3219999999 0 1.5314318266e-11)
(-88.3220000003 0 -1.99131301271e-11)
(-88.3219999998 0 -8.51109060088e-12)
(-88.3219999995 0 -4.97143502686e-12)
(-88.3220000002 0 1.71685031621e-11)
(-88.3220000006 0 2.0620095225e-11)
(-88.3219999996 0 -6.37781259331e-12)
(-88.3219999993 0 9.91700762876e-11)
(-88.3220000008 0 -2.7405328915e-13)
(-88.3220000007 0 4.97877161407e-13)
(-88.3219999996 0 -7.17855992012e-12)
(-88.3219999999 0 -5.02135223654e-12)
(-88.322 0 6.98453141802e-12)
(-88.322 0 -7.86498690221e-12)
(-88.3219999999 0 1.42797252061e-10)
(-88.3220000001 0 7.49315896149e-11)
(-88.3220000005 0 1.09123437463e-10)
(-88.3219999996 0 7.73296454028e-11)
(-88.3219999995 0 9.70586064902e-11)
(-88.3220000002 0 7.26149547015e-11)
(-88.3219999999 0 -8.58934609141e-11)
(-88.3220000002 0 1.85446852665e-11)
(-88.3219999999 0 -4.95744049383e-11)
(-88.3219999998 0 1.25145710425e-10)
(-88.3220000004 0 1.82399232458e-10)
(-88.3220000001 0 -2.60901519305e-10)
(-88.3219999999 0 -2.34942458403e-11)
(-88.322 0 2.03965545505e-10)
(-88.3219999999 0 1.30356393094e-10)
(-88.3219999999 0 -6.29768866777e-11)
(-88.3219999999 0 -2.55690946163e-10)
(-88.322 0 3.52516954045e-10)
(-88.322 0 2.14129379225e-10)
(-88.322 0 1.16365502787e-10)
(-88.3220000001 0 -5.23545583246e-11)
(-88.322 0 -1.48023468027e-11)
(-88.322 0 1.08677431771e-11)
(-88.322 0 5.19489192862e-12)
(-88.322 0 -1.19260576902e-11)
(-88.322 0 4.11939472737e-12)
(-88.322 0 5.24592247034e-12)
(-88.322 0 1.49568516407e-11)
(-88.322 0 9.90501977512e-12)
(-88.322 0 2.53798305204e-12)
(-88.322 0 3.93093439104e-12)
(-88.322 0 -3.04325810355e-11)
(-88.322 0 -3.85653399151e-11)
(-88.322 0 -7.20451762568e-12)
(-88.322 0 4.8472961511e-12)
(-88.322 0 4.94287484177e-12)
(-88.322 0 9.92241634114e-12)
(-88.322 0 4.61638636073e-12)
(-88.3219999999 0 -6.21128439022e-13)
(-88.3220000002 0 7.12136079243e-12)
(-88.3220000006 0 2.72103668964e-12)
(-88.3219999996 0 1.06385849651e-12)
(-88.3219999994 0 2.78011649411e-12)
(-88.3220000001 0 -1.90087987893e-11)
(-88.322 0 8.08644400291e-12)
(-88.3220000001 0 6.77705504662e-12)
(-88.322 0 5.17289184938e-11)
(-88.322 0 6.15144180463e-11)
(-88.3220000001 0 9.22028260751e-11)
(-88.322 0 2.03978120643e-11)
(-88.322 0 5.92250387849e-11)
(-88.3220000001 0 9.06474423943e-11)
(-88.322 0 -2.13823990042e-11)
(-88.322 0 -1.17335042308e-10)
(-88.322 0 -2.52062178012e-10)
(-88.322 0 -8.20855455742e-11)
(-88.322 0 1.69027700258e-10)
(-88.322 0 -2.18556156632e-10)
(-88.322 0 -1.95489793222e-10)
(-88.322 0 1.84624312277e-10)
(-88.322 0 1.19536327477e-10)
(-88.322 0 2.82603162699e-11)
(-88.322 0 5.45872901303e-11)
(-88.322 0 2.10816190652e-11)
(-88.322 0 2.94418010449e-11)
(-88.322 0 -7.87734308132e-12)
(-88.322 0 1.14492609047e-10)
(-88.322 0 2.54683467885e-10)
(-88.322 0 -6.54739735959e-11)
(-88.322 0 -4.73166064056e-12)
(-88.3219999999 0 4.75216443992e-11)
(-88.3220000001 0 -3.43843997178e-11)
(-88.3219999998 0 1.05508752888e-10)
(-88.3219999996 0 -9.0567726333e-11)
(-88.3220000006 0 -1.36440703714e-11)
(-88.3220000005 0 -9.82203833496e-11)
(-88.3219999997 0 -5.94014193932e-11)
(-88.322 0 6.23552443858e-11)
(-88.3219999999 0 -2.10611653902e-10)
(-88.322 0 2.19933992267e-10)
(-88.3219999997 0 1.17152966035e-10)
(-88.3219999997 0 1.04120821235e-10)
(-88.3220000002 0 5.62689174038e-11)
(-88.3220000001 0 3.86416728916e-11)
(-88.3220000001 0 -9.35649827536e-12)
(-88.3219999999 0 -2.21234885951e-11)
(-88.322 0 5.55832326431e-11)
(-88.322 0 2.01621353177e-10)
(-88.322 0 -1.43760913025e-10)
(-88.322 0 1.79962433336e-10)
(-88.322 0 2.23602097397e-10)
(-88.322 0 -5.46138713093e-11)
(-88.322 0 -1.34784707919e-11)
(-88.322 0 1.62808423533e-11)
(-88.322 0 -1.784648126e-13)
(-88.322 0 1.83273661816e-11)
(-88.322 0 4.16605181815e-11)
(-88.322 0 -5.4825294966e-11)
(-88.322 0 1.50429190111e-10)
(-88.322 0 1.50198176722e-10)
(-88.322 0 1.07462359503e-10)
(-88.322 0 5.99418273068e-11)
(-88.322 0 -3.86736170084e-11)
(-88.322 0 -4.77706115848e-11)
(-88.322 0 2.33531481285e-10)
(-88.322 0 3.87925475753e-10)
(-88.322 0 -1.36137947215e-10)
(-88.322 0 -1.99182637339e-10)
(-88.322 0 -1.11350693135e-10)
(-88.3219999999 0 1.53480524812e-10)
(-88.3219999999 0 7.67827304436e-11)
(-88.3219999998 0 -2.36347691022e-11)
(-88.3220000002 0 1.16170541116e-10)
(-88.3220000001 0 7.691720048e-11)
(-88.3219999997 0 5.52381870283e-11)
(-88.3220000005 0 -1.27994703989e-10)
(-88.3220000002 0 2.78176371178e-11)
(-88.322 0 8.36675696198e-12)
(-88.3220000002 0 1.52761285868e-12)
(-88.3219999998 0 -1.94104747275e-12)
(-88.3219999999 0 4.43741428198e-12)
(-88.322 0 4.49036925466e-12)
(-88.322 0 -3.00149342587e-12)
(-88.322 0 1.74223175576e-11)
(-88.322 0 8.18848090395e-12)
(-88.322 0 -6.75560213922e-12)
(-88.322 0 1.17933094042e-12)
(-88.322 0 1.03912637834e-12)
(-88.322 0 2.29490273199e-13)
(-88.322 0 -1.83653210939e-13)
(-88.322 0 1.33093257127e-12)
(-88.322 0 2.11462956403e-11)
(-88.322 0 -1.14507615412e-11)
(-88.322 0 -5.09398774319e-12)
(-88.322 0 5.82525899119e-12)
(-88.322 0 -2.52006545378e-11)
(-88.322 0 8.40297919006e-11)
(-88.322 0 -1.60141159501e-10)
(-88.3220000004 0 -1.34928577387e-10)
(-88.3220000002 0 1.56617274814e-10)
(-88.3219999996 0 9.19607001607e-11)
(-88.3220000003 0 1.12945141579e-11)
(-88.3219999996 0 1.08112293339e-10)
(-88.3219999993 0 -2.10124057937e-11)
(-88.3220000001 0 1.19474192596e-10)
(-88.3220000001 0 -1.3328939985e-10)
(-88.3220000001 0 -2.06195230333e-11)
(-88.3220000002 0 -4.47346626962e-11)
(-88.322 0 6.401948011e-11)
(-88.3219999999 0 1.10940130489e-11)
(-88.3219999995 0 -1.18221382305e-11)
(-88.3220000004 0 2.21046658311e-13)
(-88.322 0 1.26609650514e-12)
(-88.3219999993 0 -6.89960249363e-13)
(-88.3220000005 0 -9.53112547996e-12)
(-88.3220000005 0 -8.70080983423e-12)
(-88.3219999999 0 1.20996587323e-11)
(-88.322 0 -7.61887185842e-11)
(-88.322 0 1.20197651513e-10)
(-88.3219999999 0 -1.9945151164e-10)
(-88.3220000001 0 -2.66104176989e-10)
(-88.3219999998 0 -4.86298577735e-11)
(-88.3219999996 0 -5.60544781905e-11)
(-88.3220000001 0 -2.46965753867e-11)
(-88.3220000002 0 -5.54587841948e-12)
(-88.3220000003 0 -5.88519016722e-12)
(-88.3220000001 0 1.69696908702e-12)
(-88.3219999996 0 -9.19460684822e-13)
(-88.3219999997 0 -4.06916088801e-13)
(-88.3220000003 0 1.61606620542e-12)
(-88.3220000005 0 -2.76912224603e-12)
(-88.322 0 1.55533165568e-11)
(-88.3219999993 0 -2.42553641166e-11)
(-88.3219999997 0 1.52808625063e-12)
(-88.3220000004 0 -5.8272144829e-11)
(-88.322 0 -5.81763626108e-11)
(-88.3219999999 0 -1.65150445936e-10)
(-88.3220000001 0 3.50223152695e-11)
(-88.3220000005 0 -1.28135375827e-10)
(-88.3220000001 0 -1.39501728412e-10)
(-88.3219999997 0 1.91229392808e-10)
(-88.322 0 6.55225705587e-11)
(-88.322 0 -1.12451713323e-10)
(-88.322 0 -1.5165362022e-11)
(-88.322 0 -6.51884567128e-11)
(-88.322 0 2.55359098313e-10)
(-88.322 0 2.38879266204e-11)
(-88.322 0 -7.06742623433e-11)
(-88.322 0 2.32719594804e-12)
(-88.322 0 1.8603355099e-12)
(-88.322 0 2.82279450491e-13)
(-88.322 0 6.55316615472e-12)
(-88.322 0 1.9108086893e-11)
(-88.322 0 6.579778291e-13)
(-88.322 0 -4.46255891263e-14)
(-88.322 0 -3.98431166208e-13)
(-88.322 0 1.09771020806e-12)
(-88.322 0 6.5456829675e-13)
(-88.322 0 6.8631662747e-12)
(-88.322 0 -4.96468286371e-12)
(-88.322 0 1.39456420258e-11)
(-88.322 0 -2.23484741642e-11)
(-88.322 0 1.66074824214e-11)
(-88.322 0 1.73434835522e-10)
(-88.322 0 9.78157992172e-11)
(-88.322 0 -2.15009617161e-12)
(-88.322 0 2.60716068598e-10)
(-88.322 0 -1.51309273826e-10)
(-88.322 0 -6.98004681265e-11)
(-88.322 0 4.39968693849e-11)
(-88.322 0 5.39192181659e-11)
(-88.322 0 -1.96570693372e-11)
(-88.322 0 3.8281038321e-11)
(-88.322 0 3.16906490729e-11)
(-88.322 0 -5.54526682079e-11)
(-88.322 0 -1.92722693454e-10)
(-88.322 0 1.5690537818e-10)
(-88.322 0 -1.77897550256e-10)
(-88.322 0 -2.23900689722e-10)
(-88.322 0 5.39583468191e-11)
(-88.3220000002 0 1.36573385193e-11)
(-88.3219999998 0 -2.60107951804e-11)
(-88.3220000003 0 4.03428504648e-12)
(-88.3220000008 0 -1.15159322092e-11)
(-88.3219999997 0 -2.39630256283e-11)
(-88.3219999995 0 3.90590524317e-11)
(-88.3219999999 0 -1.51692525492e-10)
(-88.3219999999 0 -1.36589338436e-10)
(-88.322 0 -1.0057255117e-10)
(-88.322 0 -5.13021604981e-11)
(-88.322 0 4.29578151775e-11)
(-88.322 0 1.27486131331e-11)
(-88.322 0 -1.28632414978e-10)
(-88.322 0 -1.3224893911e-10)
(-88.322 0 2.54709184331e-11)
(-88.322 0 1.28419064726e-10)
(-88.322 0 4.35398956967e-11)
(-88.322 0 -1.98733885014e-10)
(-88.322 0 -1.08900688156e-10)
(-88.322 0 -1.04997407345e-11)
(-88.322 0 -1.25934552005e-10)
(-88.322 0 -7.58989628154e-11)
(-88.3220000001 0 -8.63484975626e-11)
(-88.3219999998 0 1.48759895022e-10)
(-88.3219999998 0 -1.23424857486e-11)
(-88.3220000006 0 -5.20584279889e-12)
(-88.3220000003 0 -1.22845740394e-11)
(-88.3219999997 0 -1.26606818254e-12)
(-88.3219999993 0 2.17299365369e-11)
(-88.3219999999 0 -4.5126513272e-12)
(-88.3220000006 0 7.35915767819e-12)
(-88.3220000001 0 -1.435783468e-11)
(-88.3219999998 0 -4.75924948296e-12)
(-88.322 0 1.3773346646e-11)
(-88.322 0 1.43629629516e-12)
(-88.322 0 -3.43822455069e-12)
(-88.322 0 -1.97480336735e-11)
(-88.322 0 -5.24378726659e-12)
(-88.322 0 1.23676521152e-12)
(-88.322 0 -1.29479387132e-11)
(-88.322 0 5.67355583183e-12)
(-88.322 0 2.87736179543e-12)
(-88.322 0 -8.22522340211e-12)
(-88.322 0 1.68826943963e-12)
(-88.322 0 -3.41653505082e-11)
(-88.322 0 1.68907222054e-10)
(-88.322 0 1.28500657794e-10)
(-88.322 0 -2.07728512321e-10)
(-88.322 0 -1.21040857327e-10)
(-88.322 0 -1.98361580642e-11)
(-88.322 0 -1.34672298738e-10)
(-88.322 0 4.19839509274e-11)
(-88.3219999997 0 -1.23622947034e-10)
(-88.3219999998 0 1.38437320589e-10)
(-88.3220000003 0 1.04471281735e-11)
(-88.3220000002 0 1.86897587222e-11)
(-88.322 0 -4.76858010143e-11)
(-88.3220000001 0 -1.77945688599e-11)
(-88.322 0 2.72028364735e-13)
(-88.322 0 -5.88140830095e-12)
(-88.322 0 4.32950717022e-12)
(-88.322 0 2.94060916157e-12)
(-88.322 0 1.35548939046e-12)
(-88.322 0 -6.45201177068e-12)
(-88.322 0 -1.50935377084e-11)
(-88.322 0 6.38566005991e-11)
(-88.322 0 -1.2638447045e-10)
(-88.322 0 2.25598833773e-10)
(-88.322 0 3.12009765156e-10)
(-88.322 0 5.14875645347e-11)
(-88.322 0 5.21122350859e-11)
(-88.322 0 1.93328972573e-11)
(-88.322 0 -4.03439033878e-12)
(-88.322 0 5.56995253131e-12)
(-88.322 0 8.58089384801e-13)
(-88.322 0 -1.00699246513e-13)
(-88.322 0 -3.9792726866e-12)
(-88.322 0 3.2892756461e-12)
(-88.322 0 6.45772145533e-12)
(-88.322 0 1.24631227848e-12)
(-88.322 0 6.43329890971e-12)
(-88.322 0 -7.99387663455e-12)
(-88.322 0 3.90400920068e-12)
(-88.322 0 5.44031455552e-12)
(-88.322 0 -4.69104886188e-12)
(-88.322 0 7.49592636133e-12)
(-88.322 0 1.04482230629e-11)
(-88.322 0 2.76231195099e-11)
(-88.322 0 -7.97908028037e-11)
(-88.322 0 1.47172159692e-10)
(-88.322 0 7.5876777002e-11)
(-88.322 0 -1.15342158087e-11)
(-88.322 0 2.06850219987e-11)
(-88.322 0 -3.49455749908e-10)
(-88.322 0 -1.43657858016e-12)
(-88.322 0 8.88456423493e-11)
(-88.322 0 1.04677340377e-11)
(-88.322 0 -3.14816090307e-12)
(-88.322 0 1.29926099384e-11)
(-88.322 0 -1.20276775622e-11)
(-88.322 0 -1.64828980058e-11)
(-88.322 0 -3.99412934627e-12)
(-88.322 0 6.38290670846e-12)
(-88.322 0 1.22341537038e-11)
(-88.322 0 8.39151561494e-12)
(-88.322 0 1.35374947039e-11)
(-88.322 0 -3.62899266101e-12)
(-88.322 0 -4.17332170141e-12)
(-88.3219999997 0 4.58379778047e-12)
(-88.3219999997 0 2.29925658295e-11)
(-88.3220000008 0 3.62806606049e-11)
(-88.3220000005 0 -6.99586534905e-11)
(-88.3219999996 0 -3.32120653053e-11)
(-88.322 0 -4.08531173972e-11)
(-88.3219999999 0 -1.64250441651e-11)
(-88.322 0 -2.84901898861e-11)
(-88.3219999998 0 6.29189015744e-11)
(-88.3219999997 0 -3.07348961627e-10)
(-88.3220000003 0 -1.98238117086e-10)
(-88.322 0 -8.26581686225e-11)
(-88.3219999999 0 -4.33537239906e-12)
(-88.3219999999 0 4.1321064068e-11)
(-88.322 0 -1.552831448e-11)
(-88.322 0 -8.73043912672e-12)
(-88.322 0 8.52762139879e-12)
(-88.322 0 4.35583786836e-12)
(-88.322 0 -1.47873569045e-11)
(-88.322 0 -3.0246793844e-11)
(-88.322 0 -1.333771775e-11)
(-88.322 0 -1.42009162111e-11)
(-88.322 0 -1.52135638799e-12)
(-88.322 0 -9.39162606581e-12)
(-88.322 0 -6.7717665312e-12)
(-88.322 0 1.28465081604e-13)
(-88.322 0 -1.58066277322e-12)
(-88.322 0 -4.32435283427e-12)
(-88.322 0 -7.27246428435e-12)
(-88.322 0 -4.39503464642e-12)
(-88.322 0 7.02042969583e-12)
(-88.322 0 -2.95283513202e-11)
(-88.322 0 -3.63256989888e-11)
(-88.322 0 8.31824759229e-11)
(-88.322 0 9.26485623738e-11)
(-88.322 0 -1.32061367784e-10)
(-88.322 0 -1.3610528844e-10)
(-88.322 0 -8.04008396064e-11)
(-88.322 0 6.76362778411e-12)
(-88.322 0 -3.79214848987e-11)
(-88.322 0 2.17869044732e-11)
(-88.322 0 -6.70061341601e-11)
(-88.322 0 -1.30695885034e-10)
(-88.322 0 -1.25124446836e-10)
(-88.3219999996 0 -4.03192514386e-12)
(-88.3220000003 0 -1.57558298591e-10)
(-88.3220000006 0 -1.98009994483e-10)
(-88.3219999998 0 -2.45663121308e-10)
(-88.322 0 1.59575156054e-10)
(-88.3219999999 0 2.49764550477e-10)
(-88.3219999997 0 -2.03581966952e-10)
(-88.322 0 -2.21070238612e-10)
(-88.322 0 7.84261780119e-11)
(-88.322 0 2.07003993801e-11)
(-88.322 0 -1.93758825635e-10)
(-88.322 0 -1.81068395299e-10)
(-88.322 0 1.82230843338e-10)
(-88.322 0 -1.01521564742e-10)
(-88.322 0 4.9390642483e-11)
(-88.322 0 -2.26565780159e-10)
(-88.322 0 2.13878423247e-10)
(-88.322 0 -1.02619488358e-11)
(-88.322 0 1.42525581821e-11)
(-88.322 0 2.12658391985e-11)
(-88.322 0 -7.62425604022e-11)
(-88.322 0 -2.60091967698e-10)
(-88.3220000002 0 -2.32454207476e-10)
(-88.3220000002 0 2.31410850963e-11)
(-88.3219999999 0 2.45322587361e-10)
(-88.3219999999 0 2.71873450301e-10)
(-88.3219999999 0 -8.03078985867e-11)
(-88.3219999998 0 -1.64375649916e-10)
(-88.3220000003 0 1.44139051852e-10)
(-88.3220000003 0 -3.52876222402e-11)
(-88.3219999998 0 -6.41436377752e-11)
(-88.3219999999 0 2.54208508648e-11)
(-88.322 0 3.46329770732e-11)
(-88.3220000001 0 1.84722857501e-11)
(-88.3220000001 0 5.62858848966e-12)
(-88.322 0 -2.54585616894e-11)
(-88.322 0 3.43858051208e-12)
(-88.322 0 -3.00528408061e-11)
(-88.322 0 1.68958437963e-11)
(-88.322 0 1.54192268524e-11)
(-88.322 0 -2.37982010152e-11)
(-88.322 0 -1.33076123557e-10)
(-88.322 0 -8.57708322631e-11)
(-88.322 0 -1.47165100873e-10)
(-88.322 0 -1.71283285865e-10)
(-88.322 0 -1.30952764103e-10)
(-88.322 0 1.73684235168e-11)
(-88.322 0 2.16352581472e-11)
(-88.322 0 1.47697278297e-11)
(-88.322 0 -6.70460006123e-11)
(-88.322 0 -1.287435312e-10)
(-88.3220000001 0 8.74690816067e-11)
(-88.3219999998 0 1.50441548266e-10)
(-88.3219999998 0 2.20822135595e-10)
(-88.3220000004 0 -1.09001596482e-10)
(-88.3220000004 0 -5.53832198871e-11)
(-88.3219999999 0 4.70269058706e-11)
(-88.3219999997 0 4.23740048157e-11)
(-88.3219999999 0 4.66668252861e-11)
(-88.322 0 1.92309901132e-11)
(-88.3220000001 0 1.78441018797e-11)
(-88.3220000003 0 8.4797484971e-12)
(-88.3220000001 0 -1.937243146e-11)
(-88.3219999997 0 9.29954573318e-12)
(-88.322 0 -9.86038148317e-12)
(-88.3220000004 0 -2.01980439741e-10)
(-88.3220000002 0 1.29365278596e-10)
(-88.3219999992 0 1.64179502583e-10)
(-88.321999999 0 8.18884612429e-11)
(-88.3220000007 0 2.26359983665e-10)
(-88.3220000009 0 -6.03676644888e-11)
(-88.3219999995 0 1.33712708981e-11)
(-88.3219999995 0 2.08303532328e-12)
(-88.3220000005 0 -1.03809641446e-12)
(-88.3220000004 0 2.51442919147e-12)
(-88.3219999993 0 -1.12934315949e-11)
(-88.3219999999 0 1.16685365163e-11)
(-88.3220000002 0 -1.10439608129e-11)
(-88.3220000002 0 -2.7963522101e-11)
(-88.3219999997 0 4.49827072238e-11)
(-88.3219999996 0 3.88392467924e-11)
(-88.3220000004 0 8.77520280026e-11)
(-88.3219999999 0 -9.97791011926e-11)
(-88.3220000002 0 -1.21597598345e-10)
(-88.3220000002 0 7.93187105895e-11)
(-88.322 0 -1.36473853383e-11)
(-88.3220000002 0 5.35720006503e-12)
(-88.3219999996 0 9.43388418709e-11)
(-88.3219999991 0 1.20008533264e-10)
(-88.3220000007 0 1.23706173215e-10)
(-88.3220000007 0 -2.29013517354e-11)
(-88.3219999995 0 -4.59306265652e-12)
(-88.3219999995 0 -9.24933388382e-11)
(-88.3220000001 0 1.45204917489e-10)
(-88.3220000001 0 9.0014849985e-11)
(-88.3219999999 0 5.61774995887e-11)
(-88.322 0 -3.81655566573e-11)
(-88.322 0 -5.16528642335e-11)
(-88.322 0 1.25495374692e-11)
(-88.322 0 -1.07733780296e-11)
(-88.322 0 -1.70404390193e-12)
(-88.322 0 -8.41587267044e-12)
(-88.322 0 4.19673997109e-12)
(-88.3220000001 0 1.59941318751e-11)
(-88.3220000003 0 9.1052250661e-12)
(-88.3220000001 0 -7.43201929513e-13)
(-88.322 0 -2.70054097304e-11)
(-88.3220000001 0 -2.48988404006e-12)
(-88.322 0 -2.0376568236e-11)
(-88.3219999997 0 -9.46138998123e-12)
(-88.3219999997 0 -1.41825872577e-11)
(-88.322 0 -3.51959292026e-12)
(-88.3220000001 0 -9.11298696271e-13)
(-88.3220000003 0 4.19900719013e-12)
(-88.3219999997 0 -1.09056312819e-11)
(-88.3219999994 0 3.19952158652e-11)
(-88.3219999997 0 3.17151347562e-11)
(-88.3220000005 0 -7.44979279631e-11)
(-88.3220000006 0 -9.57648132157e-11)
(-88.3219999997 0 1.24625630042e-10)
(-88.3219999998 0 1.34531248732e-10)
(-88.322 0 7.51270490197e-11)
(-88.322 0 -5.24138718541e-12)
(-88.322 0 3.89442177637e-11)
(-88.322 0 -1.5288438377e-11)
(-88.322 0 6.81937451783e-11)
(-88.322 0 1.31233736762e-10)
(-88.322 0 1.24025487329e-10)
(-88.322 0 3.59696658067e-12)
(-88.322 0 1.56414887665e-10)
(-88.3219999999 0 2.02285101099e-10)
(-88.3219999999 0 2.57566691705e-10)
(-88.3219999999 0 -1.58757089507e-10)
(-88.3220000002 0 -2.41478835752e-10)
(-88.3220000001 0 2.11079152681e-10)
(-88.322 0 2.19618451081e-10)
(-88.322 0 -7.39848827817e-11)
(-88.322 0 -2.02695241636e-11)
(-88.322 0 1.91187408654e-10)
(-88.322 0 1.78097244029e-10)
(-88.322 0 -1.86961289024e-10)
(-88.3220000001 0 9.96704396271e-11)
(-88.3219999999 0 -5.10562673021e-11)
(-88.3219999999 0 2.23748272664e-10)
(-88.3219999999 0 -2.16037283521e-10)
(-88.3220000003 0 1.21210784241e-11)
(-88.3220000004 0 -1.22624070451e-11)
(-88.3219999997 0 -4.68445668845e-11)
(-88.3219999998 0 1.42066061358e-11)
(-88.3220000001 0 2.21698076119e-10)
(-88.322 0 1.95368543533e-10)
(-88.3219999999 0 5.4543540942e-12)
(-88.3219999999 0 -1.05102686948e-10)
(-88.3220000002 0 -2.80767181139e-10)
(-88.3220000001 0 1.98603290656e-10)
(-88.3219999999 0 1.16428537376e-10)
(-88.322 0 -2.80677951697e-11)
(-88.322 0 -1.11237317693e-10)
(-88.322 0 2.51167464501e-11)
(-88.322 0 -4.56226554562e-11)
(-88.322 0 2.15550481246e-12)
(-88.322 0 1.55144645428e-11)
(-88.322 0 -6.07723862822e-12)
(-88.322 0 2.36585884988e-11)
(-88.322 0 -3.54948163266e-12)
(-88.322 0 2.66084116311e-11)
(-88.322 0 -2.30076151016e-11)
(-88.322 0 -3.10803477692e-11)
(-88.322 0 -3.22215150947e-11)
(-88.322 0 2.27768990528e-11)
(-88.322 0 9.01606889557e-11)
(-88.322 0 4.8047442276e-11)
(-88.322 0 -2.03136930156e-11)
(-88.322 0 -3.6751735464e-11)
(-88.322 0 -1.61574581194e-12)
(-88.322 0 -1.26804640761e-11)
(-88.322 0 -1.47827123753e-11)
(-88.322 0 6.22601580002e-11)
(-88.322 0 1.29174238174e-10)
(-88.322 0 -9.1001128659e-11)
(-88.322 0 -1.53123112197e-10)
(-88.322 0 -2.18789840531e-10)
(-88.322 0 9.87291330942e-11)
(-88.322 0 5.73411050957e-11)
(-88.322 0 -4.45273958179e-11)
(-88.322 0 -4.1153338412e-11)
(-88.322 0 -4.85235585571e-11)
(-88.322 0 -2.95156941312e-11)
(-88.322 0 -1.98767564813e-11)
(-88.322 0 -3.30007304743e-12)
(-88.322 0 1.34847959519e-11)
(-88.322 0 2.84825202026e-11)
(-88.322 0 -5.21981817419e-11)
(-88.322 0 6.88825834389e-11)
(-88.322 0 -1.04124658241e-10)
(-88.322 0 -1.09219548261e-10)
(-88.322 0 -1.26060770945e-10)
(-88.322 0 4.97279803999e-11)
(-88.322 0 -1.23667776621e-10)
(-88.322 0 -1.79132026983e-10)
(-88.322 0 1.40264143882e-10)
(-88.322 0 9.52772442557e-11)
(-88.322 0 -7.29401601972e-11)
(-88.322 0 -3.69119227932e-12)
(-88.322 0 -1.38588355956e-10)
(-88.322 0 -1.41918134795e-10)
(-88.322 0 -5.52364963293e-11)
(-88.322 0 -1.53103448976e-10)
(-88.322 0 -8.64833324994e-11)
(-88.322 0 -1.08972322116e-10)
(-88.322 0 7.84147622183e-11)
(-88.3220000001 0 1.34177360163e-10)
(-88.3219999997 0 -1.0065819117e-10)
(-88.3219999997 0 1.49410394463e-11)
(-88.3220000006 0 -7.73825892723e-11)
(-88.3220000002 0 8.08012172217e-11)
(-88.3219999997 0 -9.55761884013e-11)
(-88.3220000001 0 -3.01546245634e-10)
(-88.322 0 -1.42920544269e-10)
(-88.322 0 -3.99794213215e-11)
(-88.322 0 1.54510683184e-11)
(-88.322 0 1.49929176899e-12)
(-88.322 0 -5.58579634162e-13)
(-88.322 0 4.13746949264e-13)
(-88.322 0 3.52185822991e-11)
(-88.322 0 -3.75886639182e-11)
(-88.322 0 -1.09296033947e-11)
(-88.322 0 -3.13005147333e-12)
(-88.322 0 -7.86575217685e-12)
(-88.322 0 -2.48669525458e-12)
(-88.322 0 8.33752362126e-12)
(-88.3220000001 0 -4.72192303122e-12)
(-88.3220000002 0 2.02614834635e-11)
(-88.3219999999 0 -5.35735587694e-11)
(-88.322 0 1.55646084273e-10)
(-88.3220000003 0 -2.1016378287e-10)
(-88.3220000001 0 -2.81728537059e-10)
(-88.3219999996 0 -1.4538128323e-11)
(-88.3219999996 0 -6.84413038558e-12)
(-88.322 0 -1.08515251509e-11)
(-88.322 0 -1.05199763349e-12)
(-88.322 0 -5.71307864907e-12)
(-88.322 0 2.72808384062e-12)
(-88.322 0 -2.8935809507e-12)
(-88.322 0 -5.09315697843e-12)
(-88.322 0 -1.35696693603e-11)
(-88.322 0 -1.81479804612e-13)
(-88.322 0 6.59160480936e-12)
(-88.322 0 -5.06903977109e-13)
(-88.322 0 -2.47726825284e-12)
(-88.322 0 -9.2630633136e-12)
(-88.322 0 -5.35391257389e-12)
(-88.322 0 -2.04939953153e-11)
(-88.322 0 -1.09400126542e-12)
(-88.322 0 -2.44344015914e-14)
(-88.3220000001 0 9.22449142044e-13)
(-88.3219999999 0 -6.73306186999e-14)
(-88.3220000001 0 -1.11015380143e-12)
(-88.3220000003 0 -8.15731767477e-13)
(-88.3219999999 0 -1.54302289104e-12)
(-88.3219999996 0 -1.94272433034e-11)
(-88.3220000002 0 -1.82334046076e-12)
(-88.3220000006 0 -1.55586121293e-12)
(-88.3219999994 0 -1.84266108135e-12)
(-88.3219999995 0 4.59681365963e-14)
(-88.3220000004 0 2.07680623423e-12)
(-88.3220000002 0 1.89683289058e-13)
(-88.3220000001 0 5.45366625974e-13)
(-88.3220000003 0 4.7407225537e-13)
(-88.3219999999 0 -2.64037817275e-12)
(-88.3219999999 0 -6.62530521614e-13)
(-88.3219999999 0 -1.0719143459e-12)
(-88.3219999998 0 -5.86996324373e-13)
(-88.322 0 1.50245533701e-13)
(-88.3219999999 0 -6.10891269916e-12)
(-88.322 0 5.24863934117e-11)
(-88.322 0 8.2700246666e-12)
(-88.322 0 8.61975160178e-12)