/*--------------------------------*- C++ -*----------------------------------*\
  =========                 |
  \\      /  F ield         | OpenFOAM: The Open Source CFD Toolbox
   \\    /   O peration     | Website:  https://openfoam.org
    \\  /    A nd           | Version:  6
     \\/     M anipulation  |
\*---------------------------------------------------------------------------*/
FoamFile
{
    version     2.0;
    format      ascii;
    class       volVectorField;
    location    "1.7e-05";
    object      U;
}
// * * * * * * * * * * * * * * * * * * * * * * * * * * * * * * * * * * * * * //

dimensions      [0 1 -1 0 0 0 0];

internalField   nonuniform List<vector> 
8192
(
(-88.3220000001 0 -4.33590064323e-11)
(-88.3219999999 0 -8.36093172868e-12)
(-88.322 0 -9.98095839268e-12)
(-88.322 0 -1.65344813556e-11)
(-88.322 0 2.29864300827e-12)
(-88.322 0 -2.19905681152e-12)
(-88.322 0 -7.00692631047e-13)
(-88.322 0 -1.22113480867e-12)
(-88.322 0 -1.41926543877e-11)
(-88.322 0 -5.22972650949e-11)
(-88.322 0 -6.91098178785e-11)
(-88.322 0 2.08244245891e-11)
(-88.322 0 2.70592345173e-11)
(-88.322 0 -4.44160795502e-11)
(-88.322 0 -1.06749482981e-10)
(-88.322 0 2.28391791224e-11)
(-88.322 0 -2.03916054639e-11)
(-88.322 0 5.53715171037e-11)
(-88.322 0 -7.08836908096e-11)
(-88.322 0 -5.60309983827e-11)
(-88.322 0 5.14394792606e-11)
(-88.322 0 6.24529096332e-11)
(-88.322 0 -1.02114678088e-11)
(-88.322 0 -1.22917858567e-11)
(-88.322 0 5.06335887951e-12)
(-88.322 0 2.55128112211e-12)
(-88.322 0 8.38810918773e-12)
(-88.322 0 9.90066148288e-12)
(-88.322 0 3.1772133932e-12)
(-88.322 0 -5.84059384164e-12)
(-88.322 0 1.43455551883e-11)
(-88.322 0 1.3014780132e-12)
(-88.3219999999 0 -1.85838228588e-11)
(-88.3220000001 0 6.25100499515e-11)
(-88.3220000002 0 -4.44488114371e-11)
(-88.3219999999 0 -4.56923056644e-11)
(-88.322 0 1.24489404099e-11)
(-88.322 0 -6.68173157923e-11)
(-88.3219999999 0 2.52570116094e-11)
(-88.322 0 -3.835652476e-12)
(-88.322 0 9.52673952379e-12)
(-88.322 0 -1.09777579228e-12)
(-88.322 0 -6.56660103891e-12)
(-88.322 0 -2.43273120711e-12)
(-88.322 0 -1.40952013247e-11)
(-88.322 0 -4.28690678779e-12)
(-88.322 0 -1.31725473378e-12)
(-88.322 0 -2.20722783319e-13)
(-88.322 0 2.5368057354e-12)
(-88.322 0 -7.03787810819e-12)
(-88.322 0 -1.4320022698e-12)
(-88.322 0 -9.35462979344e-12)
(-88.322 0 -1.49308742693e-12)
(-88.322 0 1.84417190832e-11)
(-88.3220000001 0 1.07310490172e-11)
(-88.322 0 -2.31422859367e-11)
(-88.322 0 6.62874739946e-12)
(-88.322 0 -1.41892374219e-11)
(-88.322 0 -5.47271918005e-12)
(-88.3219999999 0 -2.00012116104e-12)
(-88.3219999999 0 2.55140174249e-11)
(-88.3219999999 0 6.22228376647e-11)
(-88.322 0 5.65099540745e-11)
(-88.3220000002 0 4.08219701642e-11)
(-88.322 0 1.83897683805e-11)
(-88.322 0 3.04620398278e-12)
(-88.322 0 5.85591514241e-12)
(-88.322 0 -2.16573664263e-13)
(-88.322 0 -9.26849871132e-14)
(-88.322 0 -3.56970556525e-13)
(-88.322 0 -1.70076996048e-13)
(-88.322 0 4.33794890321e-14)
(-88.3220000001 0 -4.25666493685e-13)
(-88.3220000001 0 -7.29670607347e-12)
(-88.3219999999 0 -7.33964341009e-13)
(-88.3219999998 0 -1.40229354232e-11)
(-88.3220000001 0 -5.43478233405e-13)
(-88.3220000003 0 -5.60452406961e-13)
(-88.3219999999 0 -6.32739780927e-12)
(-88.3219999998 0 5.20604143344e-12)
(-88.3219999999 0 8.89751976156e-14)
(-88.3220000001 0 1.15236265456e-12)
(-88.3220000002 0 -1.01661654885e-11)
(-88.3219999998 0 -1.30751373702e-12)
(-88.3219999998 0 3.36285276142e-13)
(-88.3220000001 0 4.40867635143e-13)
(-88.3220000001 0 6.64877345027e-13)
(-88.322 0 -3.61537278604e-12)
(-88.322 0 4.7833134984e-11)
(-88.322 0 -4.26309482463e-11)
(-88.322 0 3.14526741594e-11)
(-88.322 0 3.00728080475e-11)
(-88.322 0 2.20066992916e-11)
(-88.322 0 2.67775233065e-12)
(-88.322 0 -4.29640313755e-13)
(-88.322 0 -3.00631344228e-12)
(-88.322 0 1.20108858389e-11)
(-88.322 0 -5.78451168747e-11)
(-88.322 0 2.5699813179e-11)
(-88.322 0 3.1198611259e-11)
(-88.322 0 -1.8363828559e-11)
(-88.322 0 1.22587698028e-11)
(-88.322 0 -2.08662607319e-11)
(-88.322 0 3.38976543714e-12)
(-88.322 0 4.34632486379e-12)
(-88.322 0 -1.22803263088e-12)
(-88.322 0 -6.53451577282e-13)
(-88.322 0 2.26461759735e-12)
(-88.322 0 -4.04710123723e-11)
(-88.322 0 -3.00530225036e-11)
(-88.322 0 -5.06075678577e-11)
(-88.322 0 -3.0965450528e-11)
(-88.322 0 -3.24572973124e-11)
(-88.322 0 -2.52096068303e-11)
(-88.322 0 1.70165703169e-11)
(-88.322 0 2.67977923106e-12)
(-88.322 0 -8.77758721462e-13)
(-88.322 0 -3.54967236323e-12)
(-88.322 0 -2.23970976617e-11)
(-88.322 0 5.34262636785e-11)
(-88.322 0 -1.72058353537e-11)
(-88.322 0 -5.49225406437e-11)
(-88.322 0 -9.12346665227e-11)
(-88.322 0 1.12024963984e-11)
(-88.322 0 2.3959392338e-11)
(-88.322 0 -1.28181885103e-10)
(-88.322 0 -1.07396023374e-10)
(-88.322 0 -5.44012426661e-11)
(-88.322 0 4.60702890296e-12)
(-88.322 0 2.78654675826e-12)
(-88.322 0 -2.46980604881e-12)
(-88.322 0 1.66166103892e-11)
(-88.322 0 3.32155201914e-12)
(-88.322 0 6.76462142732e-12)
(-88.322 0 1.36794502799e-12)
(-88.322 0 3.71385430748e-12)
(-88.322 0 6.0556919081e-12)
(-88.322 0 5.01648329073e-11)
(-88.322 0 6.74329010948e-11)
(-88.322 0 -1.82934532142e-11)
(-88.322 0 -3.20388424477e-11)
(-88.322 0 3.06620174863e-11)
(-88.322 0 1.01766086974e-10)
(-88.322 0 -2.23785526662e-11)
(-88.322 0 1.93958756058e-11)
(-88.322 0 -4.73729057969e-11)
(-88.322 0 6.97417784399e-11)
(-88.322 0 4.94110147093e-11)
(-88.322 0 -5.08659628919e-11)
(-88.322 0 -5.26802153752e-11)
(-88.322 0 1.95721505455e-11)
(-88.3219999999 0 1.2800235156e-11)
(-88.3220000001 0 4.27280448775e-12)
(-88.322 0 -2.61353738561e-12)
(-88.3219999998 0 7.04684329167e-13)
(-88.322 0 2.45219090011e-12)
(-88.3220000001 0 2.51569031853e-11)
(-88.322 0 -3.73356755828e-11)
(-88.322 0 2.46342541036e-11)
(-88.322 0 5.89829054369e-12)
(-88.322 0 -9.89779760744e-12)
(-88.322 0 2.42963834208e-11)
(-88.322 0 6.09384212393e-11)
(-88.322 0 9.15896074501e-12)
(-88.3220000001 0 -3.74985973127e-11)
(-88.322 0 5.83998244055e-11)
(-88.3219999999 0 7.93917038453e-11)
(-88.322 0 -7.41354206685e-11)
(-88.322 0 -4.98741648875e-11)
(-88.322 0 -4.72438427416e-12)
(-88.322 0 -1.95017726602e-11)
(-88.3220000001 0 -2.48281270666e-12)
(-88.3220000001 0 -1.4388316285e-11)
(-88.322 0 -1.3037516307e-12)
(-88.322 0 -3.19126784594e-11)
(-88.322 0 -9.27615994509e-11)
(-88.322 0 1.41233613237e-11)
(-88.3219999999 0 2.66036677375e-13)
(-88.322 0 -1.58291195425e-11)
(-88.322 0 2.62960369297e-11)
(-88.322 0 -6.05747686204e-11)
(-88.322 0 1.74573909986e-11)
(-88.322 0 -8.37077670041e-12)
(-88.322 0 -4.64861028522e-11)
(-88.3220000002 0 -3.27394260227e-11)
(-88.3220000001 0 -2.89431797802e-11)
(-88.3219999998 0 -1.48890647553e-11)
(-88.3219999997 0 -5.88571145352e-12)
(-88.3220000002 0 -1.11718109836e-12)
(-88.3220000002 0 8.51077011331e-12)
(-88.3219999999 0 1.28792532206e-14)
(-88.322 0 4.81597154122e-12)
(-88.322 0 2.36071474109e-11)
(-88.322 0 3.6662992587e-12)
(-88.322 0 2.61892893506e-12)
(-88.322 0 1.00482082779e-11)
(-88.322 0 -8.62135987354e-12)
(-88.322 0 -2.89330365273e-13)
(-88.322 0 4.03554921281e-13)
(-88.322 0 6.1177563119e-12)
(-88.322 0 1.27373297311e-12)
(-88.322 0 1.33523333383e-11)
(-88.322 0 1.73815738577e-12)
(-88.322 0 7.33302646146e-12)
(-88.322 0 7.83370784207e-12)
(-88.322 0 1.38292126357e-11)
(-88.322 0 8.30142962585e-12)
(-88.322 0 -1.01618781438e-11)
(-88.322 0 3.70863871569e-13)
(-88.322 0 -7.25870364325e-12)
(-88.322 0 1.10648483034e-11)
(-88.322 0 3.37531799664e-12)
(-88.322 0 -1.8152355126e-11)
(-88.322 0 -8.84840057158e-11)
(-88.322 0 2.71472870193e-11)
(-88.322 0 1.65112834564e-11)
(-88.322 0 -3.44405424409e-11)
(-88.322 0 5.04988220772e-11)
(-88.322 0 -2.43119404295e-11)
(-88.322 0 -3.25979097763e-11)
(-88.3220000001 0 -2.0979146222e-11)
(-88.322 0 -2.88039711196e-12)
(-88.3219999999 0 1.04040320045e-11)
(-88.3220000001 0 -6.63886731678e-12)
(-88.322 0 -5.46805150345e-13)
(-88.3219999999 0 -3.1020192553e-12)
(-88.322 0 1.11508519809e-11)
(-88.3220000002 0 1.41531342993e-11)
(-88.3219999999 0 -2.25278101083e-12)
(-88.3219999998 0 5.27987005529e-11)
(-88.3220000003 0 -3.2240623531e-12)
(-88.3220000002 0 -8.61876332199e-14)
(-88.3219999999 0 -4.47681091782e-12)
(-88.322 0 -3.02271523595e-12)
(-88.322 0 2.95854065767e-13)
(-88.322 0 1.14082660747e-14)
(-88.322 0 5.29496110559e-11)
(-88.322 0 3.23172643796e-11)
(-88.3220000002 0 5.03242777328e-11)
(-88.3219999999 0 2.8716674765e-11)
(-88.3219999998 0 3.31866380132e-11)
(-88.322 0 2.65166005042e-11)
(-88.322 0 -1.57388991857e-11)
(-88.3220000001 0 -1.10131555211e-12)
(-88.322 0 -5.61410284659e-12)
(-88.3219999999 0 3.74407658666e-11)
(-88.3220000001 0 7.24698668912e-11)
(-88.322 0 -7.36487878597e-11)
(-88.322 0 -4.61824868898e-12)
(-88.322 0 6.83412005129e-11)
(-88.322 0 6.4465719505e-11)
(-88.322 0 6.34527708264e-12)
(-88.322 0 -9.1854686899e-11)
(-88.322 0 1.12410045328e-10)
(-88.322 0 5.4727452726e-11)
(-88.322 0 2.38494521253e-11)
(-88.322 0 -1.31423972271e-11)
(-88.322 0 -4.18801679995e-12)
(-88.322 0 5.4377626991e-12)
(-88.322 0 5.88091025611e-13)
(-88.322 0 -6.36753478458e-12)
(-88.322 0 6.58272158262e-13)
(-88.322 0 6.74651745509e-15)
(-88.322 0 1.03589349053e-11)
(-88.322 0 6.47084554374e-12)
(-88.322 0 1.35620592389e-12)
(-88.322 0 3.063877094e-12)
(-88.322 0 -2.02585361258e-11)
(-88.322 0 -2.58132190144e-11)
(-88.322 0 -3.59692414382e-12)
(-88.322 0 1.23658134989e-12)
(-88.322 0 1.30712700657e-12)
(-88.322 0 5.24297447397e-12)
(-88.322 0 2.13598032189e-12)
(-88.322 0 -5.43444923775e-13)
(-88.322 0 4.36778859211e-12)
(-88.3220000002 0 6.56542033485e-13)
(-88.3219999999 0 -7.1046270316e-13)
(-88.3219999998 0 2.41717391608e-12)
(-88.322 0 -1.15873162523e-11)
(-88.322 0 4.588948729e-12)
(-88.322 0 2.77562214049e-12)
(-88.322 0 1.4539449605e-11)
(-88.322 0 1.34566378348e-11)
(-88.322 0 2.58561681129e-11)
(-88.322 0 2.27004245642e-11)
(-88.322 0 3.96885458222e-12)
(-88.322 0 3.05982936231e-11)
(-88.322 0 -7.00394434581e-12)
(-88.322 0 -2.8852987746e-11)
(-88.322 0 -9.08704305148e-11)
(-88.322 0 -4.55120850391e-11)
(-88.322 0 4.19724968371e-11)
(-88.322 0 -7.94419193361e-11)
(-88.322 0 -7.83907759912e-11)
(-88.322 0 6.027952015e-11)
(-88.322 0 3.3497298586e-11)
(-88.322 0 7.10710634077e-12)
(-88.322 0 1.18584726387e-11)
(-88.322 0 8.04325383302e-13)
(-88.322 0 1.19664630245e-12)
(-88.322 0 1.00079367467e-12)
(-88.322 0 2.65533472367e-11)
(-88.322 0 7.97710913125e-11)
(-88.322 0 -1.11430063397e-11)
(-88.322 0 -3.91225973263e-12)
(-88.322 0 1.37927245705e-11)
(-88.322 0 -1.45066319975e-11)
(-88.3219999999 0 4.89434305866e-11)
(-88.3219999999 0 -2.42976561498e-11)
(-88.3220000002 0 -3.19951466113e-12)
(-88.3220000002 0 -6.78239390286e-12)
(-88.3219999999 0 -3.59307933741e-11)
(-88.322 0 2.97478977278e-11)
(-88.322 0 -8.11910324851e-11)
(-88.322 0 6.20049207002e-11)
(-88.3219999999 0 1.74265299085e-11)
(-88.3219999999 0 2.52916239849e-11)
(-88.3220000001 0 1.42722749427e-11)
(-88.322 0 9.41870707507e-12)
(-88.322 0 -2.43159763174e-12)
(-88.322 0 2.52772763792e-13)
(-88.322 0 6.13198978037e-12)
(-88.322 0 7.21224598683e-11)
(-88.322 0 -3.38851674943e-11)
(-88.322 0 5.99118586136e-11)
(-88.322 0 8.82395444575e-11)
(-88.322 0 -1.80085277182e-11)
(-88.322 0 2.84862264165e-13)
(-88.322 0 5.4447005117e-12)
(-88.322 0 -1.42389316264e-12)
(-88.322 0 1.15511101897e-11)
(-88.322 0 9.87754497587e-12)
(-88.322 0 -1.43471547092e-11)
(-88.322 0 5.22038523771e-11)
(-88.322 0 5.66733849525e-11)
(-88.322 0 3.83183675435e-11)
(-88.322 0 2.07706634105e-11)
(-88.322 0 -2.68553709234e-12)
(-88.322 0 -6.74578003257e-12)
(-88.322 0 6.02592222588e-11)
(-88.322 0 1.2074137524e-10)
(-88.322 0 -2.66784597134e-11)
(-88.322 0 -5.18727717777e-11)
(-88.322 0 -4.08038121814e-11)
(-88.322 0 6.27893173269e-11)
(-88.322 0 4.59805269319e-11)
(-88.3219999999 0 2.29076631576e-13)
(-88.3220000001 0 5.27502293011e-11)
(-88.322 0 3.15724867352e-11)
(-88.3219999999 0 2.63904497833e-11)
(-88.3220000001 0 -2.18690403757e-11)
(-88.3220000001 0 3.5022160201e-12)
(-88.322 0 2.53626675923e-13)
(-88.3220000001 0 -1.3279449609e-12)
(-88.3219999999 0 -1.07311763277e-12)
(-88.322 0 4.25522123726e-12)
(-88.322 0 1.62702770843e-12)
(-88.322 0 -5.60631281558e-13)
(-88.322 0 1.09566760319e-11)
(-88.322 0 3.76459992955e-12)
(-88.322 0 -5.14331064885e-12)
(-88.322 0 3.35854038754e-13)
(-88.322 0 3.94356476298e-13)
(-88.322 0 -1.28373338978e-13)
(-88.322 0 -9.46911866231e-14)
(-88.322 0 -9.26320774943e-13)
(-88.322 0 1.07438660736e-11)
(-88.322 0 -4.61602155441e-12)
(-88.322 0 -3.27405813211e-13)
(-88.322 0 8.17688849396e-13)
(-88.322 0 6.09545175065e-12)
(-88.322 0 2.56380176988e-11)
(-88.322 0 -4.03221111739e-11)
(-88.3220000001 0 -5.26357918081e-11)
(-88.3220000001 0 4.43789350781e-11)
(-88.3219999999 0 2.32451690341e-11)
(-88.3220000001 0 4.04801059014e-12)
(-88.3219999999 0 3.12057988938e-11)
(-88.3219999998 0 -1.54536938512e-11)
(-88.322 0 4.11512864823e-11)
(-88.322 0 -4.02478506466e-11)
(-88.322 0 1.0507449091e-11)
(-88.322 0 -9.56526645243e-12)
(-88.322 0 1.10667174216e-11)
(-88.322 0 1.76497813067e-12)
(-88.3219999998 0 -6.93860458913e-12)
(-88.3220000001 0 4.13304857064e-13)
(-88.322 0 7.09824174485e-13)
(-88.3219999997 0 -3.14571725591e-13)
(-88.3220000002 0 -6.24363754478e-12)
(-88.3220000002 0 -7.16726221567e-12)
(-88.322 0 2.69754493176e-12)
(-88.322 0 -2.02426993726e-11)
(-88.322 0 3.70237531019e-11)
(-88.322 0 -5.92021726647e-11)
(-88.322 0 -8.88387129112e-11)
(-88.3219999999 0 -2.39158209893e-11)
(-88.3219999999 0 -2.06112037179e-11)
(-88.322 0 -2.24560457332e-12)
(-88.3220000001 0 -3.97145790861e-12)
(-88.3220000001 0 -3.95245325903e-12)
(-88.322 0 1.08381181189e-12)
(-88.3219999999 0 -4.73859882953e-13)
(-88.3219999999 0 -1.66705478078e-13)
(-88.3220000001 0 -2.44115016911e-12)
(-88.3220000001 0 -1.43434024828e-12)
(-88.322 0 1.15178363156e-11)
(-88.3219999998 0 -1.15597483931e-11)
(-88.3219999998 0 -1.04621615436e-12)
(-88.3220000001 0 -1.87921044011e-11)
(-88.322 0 -1.2965445935e-11)
(-88.322 0 -5.11529843541e-11)
(-88.322 0 1.1671156968e-11)
(-88.3220000001 0 -3.95352396604e-11)
(-88.3220000001 0 -4.51797494947e-11)
(-88.322 0 4.54967359803e-11)
(-88.322 0 2.88243719508e-11)
(-88.322 0 -2.74396161923e-11)
(-88.322 0 1.07850924808e-11)
(-88.322 0 -3.41477986854e-11)
(-88.322 0 9.40168438855e-11)
(-88.322 0 1.95846717672e-11)
(-88.322 0 -1.07180412302e-11)
(-88.322 0 4.80175247706e-12)
(-88.322 0 1.08522605975e-12)
(-88.322 0 7.55771045611e-14)
(-88.322 0 3.90468941344e-12)
(-88.322 0 1.29009337438e-11)
(-88.322 0 9.54536384137e-14)
(-88.322 0 -2.54673765091e-14)
(-88.322 0 -1.40966825682e-13)
(-88.322 0 6.7205566444e-13)
(-88.322 0 2.64049861435e-13)
(-88.322 0 3.75813108644e-12)
(-88.322 0 5.00296343875e-13)
(-88.322 0 -5.68692117982e-13)
(-88.322 0 -5.07545027529e-12)
(-88.322 0 2.32046505035e-12)
(-88.322 0 3.55032378292e-11)
(-88.322 0 4.49806439086e-11)
(-88.322 0 -6.11295182116e-12)
(-88.322 0 9.64315091348e-11)
(-88.322 0 -4.53834767449e-11)
(-88.322 0 -1.20576475727e-11)
(-88.322 0 1.74895319689e-11)
(-88.322 0 2.23037031042e-11)
(-88.322 0 -4.07147460512e-12)
(-88.322 0 1.76212445591e-11)
(-88.322 0 1.4022848103e-12)
(-88.322 0 -6.12528645252e-12)
(-88.322 0 -6.63557952454e-11)
(-88.322 0 4.26854547515e-11)
(-88.322 0 -5.88253139065e-11)
(-88.322 0 -8.83343763162e-11)
(-88.322 0 1.78853288515e-11)
(-88.322 0 -3.21818452069e-13)
(-88.3219999999 0 -1.10954813073e-11)
(-88.3220000001 0 2.36523592216e-12)
(-88.3220000003 0 -4.74565172031e-12)
(-88.3219999999 0 6.77790867646e-12)
(-88.3219999998 0 2.5436303517e-12)
(-88.3219999999 0 -5.23481081994e-11)
(-88.322 0 -4.79230052132e-11)
(-88.322 0 -3.35155808683e-11)
(-88.322 0 -1.5631429898e-11)
(-88.322 0 2.25110141507e-12)
(-88.322 0 5.30003010679e-12)
(-88.322 0 -3.75408933919e-11)
(-88.322 0 -3.2433732725e-11)
(-88.322 0 3.65836657967e-14)
(-88.322 0 3.87145017566e-11)
(-88.322 0 2.77692855548e-11)
(-88.322 0 -6.48831707524e-11)
(-88.322 0 -5.3197371379e-11)
(-88.322 0 2.0727340849e-14)
(-88.322 0 -5.36726384527e-11)
(-88.322 0 -3.12847049854e-11)
(-88.322 0 -3.69310036597e-11)
(-88.322 0 2.97404858646e-11)
(-88.3219999999 0 -1.75585618493e-12)
(-88.3220000002 0 -7.81875821655e-14)
(-88.3220000001 0 -1.37371145191e-12)
(-88.3219999999 0 4.53498383467e-13)
(-88.3219999998 0 1.20663796829e-11)
(-88.3219999999 0 -1.69986702485e-12)
(-88.3220000002 0 4.9498891536e-12)
(-88.322 0 -9.75979722075e-12)
(-88.322 0 -3.53306233732e-12)
(-88.322 0 9.36179126985e-12)
(-88.322 0 5.38349679487e-13)
(-88.322 0 -1.86969730381e-12)
(-88.322 0 -1.29442822756e-11)
(-88.322 0 -3.01133246962e-12)
(-88.322 0 1.1578182827e-12)
(-88.322 0 -9.07148222247e-12)
(-88.322 0 3.93490905796e-12)
(-88.322 0 4.15296660038e-13)
(-88.322 0 -1.71926310963e-12)
(-88.322 0 -7.27335065925e-12)
(-88.322 0 -2.27513173509e-11)
(-88.322 0 4.59015579848e-11)
(-88.322 0 5.07828188556e-11)
(-88.322 0 -7.00464943729e-11)
(-88.322 0 -4.33916947533e-11)
(-88.322 0 -7.08107599387e-12)
(-88.322 0 -3.5932227476e-11)
(-88.322 0 1.71311705942e-11)
(-88.3219999999 0 -4.12250393671e-11)
(-88.322 0 4.32610636048e-11)
(-88.3220000001 0 -7.20736710458e-12)
(-88.3220000001 0 1.01282851858e-11)
(-88.322 0 -8.03945178916e-12)
(-88.322 0 -6.77113082537e-13)
(-88.322 0 6.78896314534e-12)
(-88.322 0 -7.73820725025e-13)
(-88.322 0 9.19058334599e-13)
(-88.322 0 4.16181830529e-12)
(-88.322 0 4.05744135568e-12)
(-88.322 0 -3.27999326837e-12)
(-88.322 0 -3.87724726515e-12)
(-88.322 0 1.1883845732e-11)
(-88.322 0 -4.08297234981e-11)
(-88.322 0 7.57780163948e-11)
(-88.322 0 1.17290863576e-10)
(-88.322 0 2.53868776714e-11)
(-88.322 0 1.96085641816e-11)
(-88.322 0 9.25320921465e-13)
(-88.322 0 -1.54139655304e-12)
(-88.322 0 4.64643729291e-12)
(-88.322 0 9.82308523593e-14)
(-88.322 0 1.3340111715e-13)
(-88.322 0 -7.53383290874e-13)
(-88.322 0 3.48028633333e-12)
(-88.322 0 2.53407603942e-12)
(-88.322 0 6.08171181045e-13)
(-88.322 0 4.37893706189e-12)
(-88.322 0 -1.30330769049e-12)
(-88.322 0 4.27418382637e-12)
(-88.322 0 4.12408470449e-12)
(-88.322 0 -3.04654855867e-12)
(-88.322 0 7.90148898764e-12)
(-88.322 0 4.33838456306e-12)
(-88.322 0 7.42067529594e-12)
(-88.322 0 -2.99741249746e-11)
(-88.322 0 4.28646361916e-11)
(-88.322 0 2.55275565664e-11)
(-88.322 0 -5.90116232311e-12)
(-88.322 0 2.80152342669e-11)
(-88.322 0 -1.33612830149e-10)
(-88.322 0 -7.2393069939e-12)
(-88.322 0 2.25970719328e-11)
(-88.322 0 8.02124689426e-13)
(-88.322 0 -2.69922904409e-12)
(-88.322 0 1.16019872625e-11)
(-88.322 0 -5.55696807988e-12)
(-88.322 0 -1.24632540473e-11)
(-88.322 0 -1.10018678848e-12)
(-88.322 0 3.09859598508e-12)
(-88.322 0 1.13800095342e-11)
(-88.322 0 2.09942262632e-12)
(-88.322 0 9.12062230154e-12)
(-88.322 0 -2.64755047009e-12)
(-88.322 0 -3.61412263986e-12)
(-88.3219999999 0 1.26687604458e-11)
(-88.3219999999 0 4.81601887878e-12)
(-88.3220000002 0 1.1528016736e-11)
(-88.3220000002 0 -1.27691495552e-11)
(-88.3219999999 0 5.39718479462e-12)
(-88.322 0 -5.75477985967e-12)
(-88.322 0 -4.21065530436e-12)
(-88.322 0 -1.75764268202e-11)
(-88.3219999999 0 2.40798184133e-11)
(-88.3219999999 0 -9.67681229907e-11)
(-88.3220000001 0 -6.50143821848e-11)
(-88.322 0 -2.7903028184e-11)
(-88.322 0 -1.65454848377e-12)
(-88.322 0 8.20904480178e-12)
(-88.322 0 -8.11041846814e-12)
(-88.322 0 -9.98456486586e-12)
(-88.322 0 5.44832298103e-12)
(-88.322 0 3.03497430902e-12)
(-88.322 0 -9.43545231791e-12)
(-88.322 0 -1.97918730989e-11)
(-88.322 0 -7.65961355407e-12)
(-88.322 0 -8.48311615717e-12)
(-88.322 0 2.2635062413e-12)
(-88.322 0 -7.08276998617e-12)
(-88.322 0 -6.13042375727e-12)
(-88.322 0 1.36382554886e-12)
(-88.322 0 -8.51371566321e-13)
(-88.322 0 -3.29213444041e-12)
(-88.322 0 -4.83667809485e-12)
(-88.322 0 -2.18017956657e-12)
(-88.322 0 1.03956175591e-12)
(-88.322 0 -1.31017068815e-11)
(-88.322 0 -9.74928332766e-12)
(-88.322 0 1.08587528702e-11)
(-88.322 0 3.32487002528e-11)
(-88.322 0 -3.80540126261e-11)
(-88.322 0 -4.56504993497e-11)
(-88.322 0 -3.66314046129e-11)
(-88.322 0 1.54997764073e-12)
(-88.322 0 -1.28081330199e-11)
(-88.322 0 5.24665292983e-12)
(-88.322 0 -3.02771594299e-11)
(-88.322 0 -3.72215088952e-11)
(-88.322 0 -4.35570433815e-11)
(-88.3219999999 0 1.43997371598e-12)
(-88.3220000001 0 -5.82679297493e-11)
(-88.3220000002 0 -5.46356559957e-11)
(-88.3219999999 0 -1.21140795909e-10)
(-88.3220000001 0 4.50644107598e-11)
(-88.322 0 1.3456932672e-10)
(-88.3219999999 0 -7.05970965388e-11)
(-88.322 0 -8.64178881091e-11)
(-88.322 0 1.64295367309e-11)
(-88.322 0 1.37644463881e-11)
(-88.322 0 -6.98910677802e-11)
(-88.322 0 -8.13153113742e-11)
(-88.322 0 6.69072993119e-11)
(-88.322 0 -4.47342433524e-11)
(-88.322 0 2.39235812863e-11)
(-88.322 0 -8.3927510823e-11)
(-88.322 0 7.64927743466e-11)
(-88.322 0 9.03125143445e-12)
(-88.322 0 4.5243999349e-12)
(-88.322 0 1.04395340483e-11)
(-88.322 0 -2.92594264909e-11)
(-88.322 0 -9.24161160121e-11)
(-88.3220000001 0 -8.98740090584e-11)
(-88.322 0 1.94741613291e-11)
(-88.322 0 7.7962458559e-11)
(-88.322 0 1.31035583888e-10)
(-88.322 0 -3.35729449445e-11)
(-88.3219999999 0 -6.03853810719e-11)
(-88.3220000001 0 3.8197593505e-11)
(-88.3220000001 0 -1.3196046341e-11)
(-88.3219999999 0 -2.15494448239e-11)
(-88.322 0 1.02720093428e-11)
(-88.322 0 6.47566401833e-12)
(-88.322 0 6.54126144342e-13)
(-88.322 0 -1.29432255887e-12)
(-88.322 0 -1.65062596303e-11)
(-88.322 0 1.40070147372e-12)
(-88.322 0 -1.48100364343e-11)
(-88.322 0 8.07819215363e-12)
(-88.322 0 5.26591455286e-12)
(-88.322 0 -5.9670100987e-12)
(-88.322 0 -5.5133169574e-11)
(-88.322 0 -4.54927940584e-11)
(-88.322 0 -6.31028301073e-11)
(-88.322 0 -7.74892882983e-11)
(-88.322 0 -4.95425247052e-11)
(-88.322 0 -5.1787452265e-12)
(-88.322 0 8.30964901235e-12)
(-88.322 0 -1.24246426342e-12)
(-88.322 0 -1.93445337037e-11)
(-88.322 0 -3.12023573692e-11)
(-88.322 0 2.53481452522e-11)
(-88.322 0 3.32652561741e-11)
(-88.3219999999 0 8.65715718741e-11)
(-88.3220000001 0 -3.26784161415e-11)
(-88.3220000002 0 -7.28525838159e-12)
(-88.322 0 6.3884187936e-12)
(-88.3219999999 0 1.52458919111e-11)
(-88.322 0 2.33550783933e-11)
(-88.322 0 8.06501283146e-12)
(-88.322 0 8.11980613817e-12)
(-88.3220000001 0 1.57399059081e-12)
(-88.322 0 -4.15684124432e-12)
(-88.3219999999 0 -5.12666919521e-13)
(-88.322 0 9.42365779186e-12)
(-88.3220000001 0 -7.0443643777e-11)
(-88.3220000001 0 3.97241379149e-11)
(-88.3219999998 0 4.22873700431e-11)
(-88.3219999995 0 2.0880016386e-11)
(-88.3220000002 0 8.87678111049e-11)
(-88.3220000004 0 -2.38946106588e-11)
(-88.3219999998 0 9.73338023749e-12)
(-88.3219999998 0 1.09563390777e-12)
(-88.3220000002 0 -6.97155035401e-13)
(-88.3220000002 0 3.677012445e-13)
(-88.3219999997 0 -7.48202777696e-12)
(-88.3219999999 0 7.7391099036e-12)
(-88.3220000001 0 -5.4424549345e-12)
(-88.3220000001 0 1.54241428457e-12)
(-88.3219999999 0 1.25072764875e-11)
(-88.3219999998 0 9.92680417921e-12)
(-88.3220000001 0 1.76261011707e-11)
(-88.322 0 -1.97813096178e-11)
(-88.3220000001 0 -3.23074670199e-11)
(-88.3220000001 0 1.21872645653e-11)
(-88.322 0 -3.55657865399e-12)
(-88.322 0 9.00215199091e-12)
(-88.3219999999 0 2.83974457133e-11)
(-88.3219999996 0 1.98179181247e-11)
(-88.3220000002 0 2.15091878775e-11)
(-88.3220000003 0 -5.49352800717e-12)
(-88.3219999999 0 7.18887781333e-12)
(-88.3219999998 0 -3.19970719832e-11)
(-88.322 0 4.80264207001e-11)
(-88.322 0 2.90560837129e-11)
(-88.322 0 1.75340114648e-11)
(-88.322 0 -1.40398374746e-11)
(-88.322 0 -7.8767278882e-12)
(-88.322 0 6.95781003744e-12)
(-88.322 0 -2.97619965464e-12)
(-88.322 0 -5.04646732137e-13)
(-88.322 0 -5.57426114139e-12)
(-88.322 0 2.86131022335e-12)
(-88.322 0 1.05357297199e-11)
(-88.3220000001 0 6.37520992559e-12)
(-88.3220000001 0 1.12181207792e-12)
(-88.322 0 -1.7639611425e-11)
(-88.322 0 1.24285663958e-13)
(-88.322 0 -1.10249820394e-11)
(-88.3219999999 0 -3.61697879951e-12)
(-88.3219999999 0 -6.74054938558e-12)
(-88.322 0 -8.17014000051e-13)
(-88.322 0 -3.74604336036e-13)
(-88.3220000001 0 2.69655354684e-12)
(-88.3219999999 0 -1.7710117844e-12)
(-88.3219999999 0 1.36086150929e-11)
(-88.3219999999 0 4.83961197697e-12)
(-88.3220000001 0 -8.74092366217e-12)
(-88.3220000002 0 -3.44851603143e-11)
(-88.3219999999 0 3.45092465644e-11)
(-88.322 0 4.43543769416e-11)
(-88.322 0 3.24926482396e-11)
(-88.322 0 -8.55855945864e-13)
(-88.322 0 1.31944768364e-11)
(-88.322 0 -1.1627796298e-12)
(-88.322 0 3.08285151086e-11)
(-88.322 0 3.72738145183e-11)
(-88.322 0 4.26945050909e-11)
(-88.322 0 -8.50055365451e-13)
(-88.322 0 6.09835511776e-11)
(-88.322 0 5.63609490893e-11)
(-88.322 0 1.24713265515e-10)
(-88.322 0 -4.44483311762e-11)
(-88.322 0 -1.30867962395e-10)
(-88.322 0 6.82373618808e-11)
(-88.322 0 8.50682172712e-11)
(-88.322 0 -1.56073221001e-11)
(-88.322 0 -1.48357321794e-11)
(-88.322 0 6.88121214326e-11)
(-88.322 0 8.00952866043e-11)
(-88.322 0 -6.8074990983e-11)
(-88.322 0 4.55309720699e-11)
(-88.322 0 -2.38410493379e-11)
(-88.322 0 8.28667517218e-11)
(-88.322 0 -7.66709619553e-11)
(-88.3220000001 0 -8.67662130288e-12)
(-88.3220000001 0 -5.06046197673e-12)
(-88.322 0 -1.26084064068e-11)
(-88.322 0 1.60950234518e-11)
(-88.322 0 8.00988156373e-11)
(-88.322 0 7.66037147048e-11)
(-88.322 0 3.64556250835e-12)
(-88.322 0 -3.31943922881e-11)
(-88.322 0 -1.41474496439e-10)
(-88.322 0 6.68012781463e-11)
(-88.322 0 4.12565349398e-11)
(-88.322 0 2.47674047398e-12)
(-88.322 0 -3.09052427127e-11)
(-88.322 0 1.12008900086e-11)
(-88.322 0 -1.71335455033e-11)
(-88.322 0 1.4295202874e-12)
(-88.322 0 1.16384135074e-11)
(-88.322 0 -4.9647959659e-12)
(-88.322 0 1.52763071791e-11)
(-88.322 0 -1.27833299541e-12)
(-88.322 0 1.24960791824e-11)
(-88.322 0 -1.16419969273e-11)
(-88.322 0 -1.59156732993e-11)
(-88.322 0 -4.27291796633e-12)
(-88.322 0 3.47661453939e-11)
(-88.322 0 5.01152585798e-11)
(-88.322 0 2.95448336592e-11)
(-88.322 0 2.07390407154e-11)
(-88.322 0 -6.0248056946e-12)
(-88.322 0 -6.03629215362e-13)
(-88.322 0 -7.89846533888e-12)
(-88.322 0 1.41849088637e-12)
(-88.322 0 1.63367157765e-11)
(-88.322 0 3.12325373997e-11)
(-88.322 0 -2.9081316981e-11)
(-88.322 0 -3.35089128261e-11)
(-88.322 0 -8.47546525503e-11)
(-88.322 0 2.73565785774e-11)
(-88.322 0 6.94032370479e-12)
(-88.322 0 -6.11275892641e-12)
(-88.322 0 -1.51710919371e-11)
(-88.322 0 -2.46051640695e-11)
(-88.322 0 -1.44681768762e-11)
(-88.322 0 -8.4685421589e-12)
(-88.322 0 -1.48537050773e-13)
(-88.322 0 4.61608920871e-12)
(-88.322 0 5.6843995279e-12)
(-88.322 0 -2.40461786036e-11)
(-88.322 0 2.88837527652e-11)
(-88.322 0 -4.28803238042e-11)
(-88.322 0 -4.03418012114e-11)
(-88.322 0 -5.61418523617e-11)
(-88.322 0 1.54583079877e-11)
(-88.322 0 -3.60078181302e-11)
(-88.322 0 -8.51281384732e-11)
(-88.322 0 5.03418859185e-11)
(-88.322 0 3.39452399069e-11)
(-88.322 0 -1.10805542645e-11)
(-88.322 0 3.27588348103e-12)
(-88.322 0 -4.24559709708e-11)
(-88.322 0 -4.5717166975e-11)
(-88.322 0 -2.77511244669e-11)
(-88.322 0 -5.27866499002e-11)
(-88.322 0 -2.06436589655e-11)
(-88.322 0 -1.93167607174e-11)
(-88.322 0 2.03193357986e-11)
(-88.322 0 3.37224122185e-11)
(-88.3219999999 0 -2.12349429168e-11)
(-88.3219999999 0 7.94282774429e-12)
(-88.3220000002 0 -3.03260898653e-11)
(-88.3220000001 0 3.40125309116e-11)
(-88.3219999999 0 -2.10157655498e-11)
(-88.322 0 -8.61909555262e-11)
(-88.322 0 -6.18600094121e-11)
(-88.322 0 -3.43643106234e-11)
(-88.322 0 4.22192176927e-12)
(-88.322 0 9.8325907129e-13)
(-88.322 0 -1.22547776342e-12)
(-88.322 0 4.53827848635e-13)
(-88.322 0 4.90630046113e-12)
(-88.322 0 -8.83373050231e-12)
(-88.322 0 -1.90928043594e-12)
(-88.322 0 -1.50798247735e-12)
(-88.322 0 -5.24309867937e-12)
(-88.322 0 -2.03372342674e-12)
(-88.322 0 5.58736067101e-12)
(-88.322 0 2.19981502903e-13)
(-88.322 0 1.51864409959e-12)
(-88.322 0 -1.0270609716e-11)
(-88.322 0 5.45858026765e-11)
(-88.3220000001 0 -6.74024714302e-11)
(-88.3220000001 0 -1.04806385084e-10)
(-88.3219999999 0 -1.12829363326e-11)
(-88.3219999999 0 -6.48015614996e-13)
(-88.322 0 -5.42614817679e-14)
(-88.322 0 6.21562593355e-13)
(-88.322 0 -4.44825336739e-12)
(-88.322 0 4.66244115882e-13)
(-88.322 0 -1.03676177097e-12)
(-88.322 0 -1.14224264314e-12)
(-88.322 0 -5.9531272282e-12)
(-88.322 0 -8.56518562859e-13)
(-88.322 0 4.05197010776e-12)
(-88.322 0 4.07325966624e-14)
(-88.322 0 -9.86689963206e-13)
(-88.322 0 -5.69337214488e-12)
(-88.322 0 -2.68609093552e-12)
(-88.322 0 -1.35370221588e-11)
(-88.322 0 -5.46562761623e-13)
(-88.322 0 1.91573657622e-14)
(-88.322 0 6.30740337438e-13)
(-88.322 0 -2.08363969547e-14)
(-88.322 0 -3.74659475707e-13)
(-88.3220000001 0 -3.39729529547e-13)
(-88.322 0 -7.06909393649e-13)
(-88.3219999999 0 -1.13536984078e-11)
(-88.322 0 -8.27772257861e-13)
(-88.3220000002 0 1.45062216492e-13)
(-88.3219999998 0 -2.97086804371e-13)
(-88.3219999998 0 8.5530661925e-14)
(-88.3220000001 0 1.41597497424e-12)
(-88.3220000001 0 6.8830963486e-14)
(-88.3220000001 0 1.69920986537e-13)
(-88.3220000001 0 1.87619127028e-13)
(-88.322 0 -1.89250913121e-12)
(-88.322 0 -5.54485748872e-13)
(-88.322 0 -3.45709831412e-13)
(-88.3219999999 0 1.74053168492e-14)
(-88.322 0 -1.69021908805e-13)
(-88.322 0 4.95754942761e-13)
(-88.322 0 3.42290842514e-12)
(-88.322 0 5.44564569598e-12)
(-88.322 0 -9.54259556645e-13)
(-88.322 0 -4.61969078896e-12)
(-88.322 0 -9.78636729657e-12)
(-88.3220000002 0 -1.89504632762e-11)
(-88.3220000001 0 -8.22590728457e-13)
(-88.3219999999 0 -1.29147764358e-11)
(-88.3219999998 0 2.32896182892e-12)
(-88.3219999999 0 3.62457508892e-11)
(-88.322 0 3.7982489981e-11)
(-88.322 0 2.98967416224e-11)
(-88.322 0 1.16108867038e-11)
(-88.322 0 2.24776273899e-11)
(-88.322 0 -6.22438335526e-12)
(-88.322 0 3.67478982699e-12)
(-88.322 0 1.52039583799e-11)
(-88.322 0 2.7273219534e-13)
(-88.322 0 1.70959785935e-12)
(-88.322 0 4.21006711651e-12)
(-88.322 0 1.09503480491e-11)
(-88.322 0 1.02222252198e-11)
(-88.3219999999 0 4.33764216292e-11)
(-88.3220000001 0 4.64305565032e-11)
(-88.3220000003 0 2.31249090365e-11)
(-88.3219999999 0 5.26884032399e-11)
(-88.3219999998 0 8.73810004998e-11)
(-88.322 0 7.53160266903e-12)
(-88.322 0 -1.04459715578e-12)
(-88.322 0 -8.73313993552e-12)
(-88.322 0 -4.06454919793e-12)
(-88.322 0 -1.25246101039e-12)
(-88.322 0 3.41937591062e-12)