/*--------------------------------*- C++ -*----------------------------------*\
  =========                 |
  \\      /  F ield         | OpenFOAM: The Open Source CFD Toolbox
   \\    /   O peration     | Website:  https://openfoam.org
    \\  /    A nd           | Version:  6
     \\/     M anipulation  |
\*---------------------------------------------------------------------------*/
FoamFile
{
    version     2.0;
    format      ascii;
    class       volScalarField;
    location    "4e-05";
    object      p;
}
// * * * * * * * * * * * * * * * * * * * * * * * * * * * * * * * * * * * * * //

dimensions      [1 -1 -2 0 0 0 0];

internalField   nonuniform List<scalar> 
8192
(
6000000.00102
5999999.99941
6000000.00059
6000000.00015
6000000.00248
5999999.99783
6000000.00074
6000000.00001
6000000.00003
6000000.00004
6000000.00018
6000000.00004
6000000.00086
6000000.00047
6000000.00048
6000000.0002
6000000.00039
5999999.99969
5999999.9993
6000000.00034
5999999.99931
5999999.99851
6000000.001
6000000.00037
5999999.99977
6000000.00001
5999999.99924
5999999.99932
5999999.99857
5999999.99998
5999999.9994
6000000.00023
5999999.99782
5999999.99529
6000000.00592
6000000.00662
5999999.99924
6000000.00497
5999999.99847
5999999.99832
6000000.00131
5999999.99901
5999999.99998
6000000.00003
6000000.0002
6000000.0001
6000000.00001
6000000.00004
5999999.99977
6000000.00055
5999999.99861
5999999.99982
6000000.00237
5999999.99687
5999999.99805
6000000.00202
6000000.00045
6000000.00225
5999999.99974
6000000.00369
5999999.99722
5999999.998
5999999.99711
6000000.00039
6000000.00016
6000000.00089
5999999.99969
6000000.00207
5999999.99771
6000000.00193
5999999.99939
5999999.99874
6000000.00203
6000000.0038
6000000.00667
5999999.99736
5999999.99384
6000000.00745
6000000.00292
5999999.99632
5999999.99707
5999999.99465
6000000.00311
6000000.00454
5999999.99974
5999999.99896
6000000.0051
6000000.00546
5999999.99852
5999999.99851
5999999.99876
5999999.99946
5999999.99803
6000000.00232
5999999.99818
6000000.00091
6000000.001
5999999.99953
6000000.00276
5999999.99896
5999999.99998
5999999.99987
5999999.99975
6000000.00001
5999999.99971
6000000.00015
6000000.00007
6000000.00001
5999999.99998
5999999.99998
6000000.00002
6000000.00001
5999999.99993
6000000.00038
6000000
6000000.00071
6000000.00052
5999999.99951
6000000.00002
5999999.99999
5999999.99943
5999999.9992
6000000.00005
5999999.99992
6000000.00015
5999999.99988
6000000.00032
6000000.0004
6000000.00558
6000000.00034
5999999.99954
6000000.00057
5999999.99992
5999999.99974
6000000.00004
5999999.99997
5999999.99992
6000000.00061
5999999.99915
6000000.00291
6000000.00082
6000000.00235
6000000.00346
5999999.99668
5999999.99763
5999999.99826
6000000.0029
6000000.00187
6000000.00019
5999999.99936
5999999.99918
6000000.0009
5999999.99582
6000000.00194
5999999.99662
5999999.9977
6000000.00026
6000000.00018
5999999.99888
5999999.99941
5999999.99999
5999999.99981
6000000.00043
6000000.00064
5999999.99982
6000000.00236
6000000.0002
6000000.00027
5999999.99952
6000000.0001
5999999.99896
6000000.00201
6000000.00276
6000000.00288
6000000.00203
6000000.00307
6000000.00263
6000000.00102
5999999.99587
6000000.00143
6000000.00127
5999999.99854
6000000.00087
5999999.99864
6000000.00206
6000000.00129
6000000.0025
5999999.99417
5999999.99337
6000000.0022
6000000.00511
6000000.00321
5999999.99984
5999999.99998
6000000.00013
6000000.00004
5999999.99993
6000000.00001
5999999.99999
6000000.00001
6000000.00015
6000000.00001
6000000.00035
5999999.99892
5999999.9985
6000000.00143
5999999.99957
6000000.00002
6000000.00002
5999999.99998
6000000.00004
6000000.00006
6000000.00005
5999999.99952
5999999.99998
6000000.00003
5999999.9999
5999999.99996
5999999.99998
5999999.99778
5999999.99959
6000000.0012
5999999.99771
6000000.00068
6000000.0064
5999999.99537
5999999.99734
6000000.00355
6000000.00741
5999999.99123
5999999.99755
6000000.00195
6000000.00329
5999999.99707
6000000.00278
5999999.99998
6000000.00343
5999999.99896
6000000.00528
6000000.00449
5999999.9944
6000000.00021
6000000.00411
5999999.9986
6000000.00466
5999999.99564
5999999.99932
6000000.00187
6000000.00189
6000000.00303
6000000.00085
6000000.00139
6000000.00058
5999999.99915
5999999.99948
5999999.99966
5999999.99962
5999999.99907
6000000.00006
5999999.9986
6000000.00305
5999999.99902
5999999.99994
5999999.99953
6000000.00005
5999999.99993
6000000.00009
6000000.0001
6000000.00097
5999999.99851
6000000.00018
6000000.00016
5999999.99983
6000000.00131
5999999.99745
5999999.99769
6000000.00435
6000000.0023
5999999.99574
5999999.99624
5999999.99894
5999999.99641
5999999.99855
5999999.99594
6000000.0008
6000000.00297
5999999.99792
6000000.00028
5999999.99934
6000000.00047
6000000.00014
5999999.9995
6000000.00099
5999999.99834
6000000.00095
5999999.99983
6000000.00001
6000000.00011
6000000.00001
6000000.00001
6000000.00002
6000000.00007
5999999.9994
6000000.00104
5999999.99799
5999999.99943
5999999.99952
6000000.00012
6000000.00341
5999999.9976
5999999.99588
6000000.00139
6000000.00336
5999999.9989
6000000.00334
5999999.9988
6000000.00417
5999999.99671
5999999.99785
5999999.99687
6000000.00276
6000000.00105
5999999.99769
6000000.00095
6000000.00032
6000000.00055
6000000.00019
5999999.99973
6000000
6000000.00031
5999999.99917
6000000.00193
6000000.00161
6000000.00101
6000000.00065
5999999.99987
5999999.99855
5999999.99807
6000000.00029
6000000.00017
5999999.99998
5999999.9996
5999999.99909
6000000.00197
5999999.99812
6000000.00059
5999999.99762
5999999.99589
5999999.99668
6000000.00232
5999999.99767
5999999.997
6000000.00673
5999999.99944
6000000.00319
6000000.00067
5999999.99796
6000000.00312
5999999.99765
6000000.00235
5999999.99972
5999999.99981
6000000.00022
6000000.00001
6000000.0002
6000000.00004
6000000.00006
6000000.00122
5999999.99918
6000000.00206
6000000.00041
5999999.99894
6000000.00163
5999999.99947
5999999.99984
6000000.00371
5999999.99976
6000000.00187
6000000.00395
5999999.99432
5999999.9951
5999999.99622
5999999.99883
6000000.00001
6000000.00026
6000000.00099
5999999.99653
5999999.99343
6000000.0018
5999999.99642
5999999.99828
6000000.00556
5999999.9991
5999999.99886
6000000.00094
5999999.99793
5999999.9984
6000000.00477
5999999.9952
5999999.99804
5999999.9955
6000000.00037
6000000.00542
6000000.00046
5999999.99782
5999999.99323
6000000.00204
6000000.00042
6000000.00235
5999999.99896
5999999.99776
6000000.00147
5999999.99584
5999999.99524
5999999.99968
6000000.00307
5999999.999
5999999.9988
5999999.99798
6000000.00101
6000000.00158
5999999.99925
6000000.00048
5999999.99974
5999999.9999
6000000.0002
5999999.99998
5999999.99998
6000000.00001
5999999.99979
6000000.00079
5999999.9972
6000000.00052
5999999.99995
6000000.00006
5999999.99863
6000000.00077
6000000.00037
5999999.99955
6000000.00015
6000000.00096
5999999.99904
5999999.99969
6000000.00014
5999999.99973
5999999.99845
5999999.99784
5999999.99905
5999999.99786
6000000.00088
6000000.00106
6000000.00025
6000000
5999999.99984
6000000.00123
5999999.99879
6000000.00168
6000000.00194
5999999.99477
6000000.0042
6000000.00225
6000000.00039
6000000.00126
5999999.99933
6000000.00149
5999999.99949
5999999.99981
6000000.00017
6000000.00004
6000000.00009
5999999.99879
6000000.00135
5999999.99859
5999999.99955
6000000.00053
5999999.99845
6000000.00149
5999999.99831
6000000.00093
5999999.99994
5999999.99923
5999999.99874
6000000.00248
6000000.00607
5999999.99915
5999999.99847
6000000.0003
6000000.00176
5999999.99926
5999999.99855
6000000.00282
5999999.99933
6000000.00003
6000000.00001
6000000.00007
6000000.00145
5999999.99872
6000000.00255
5999999.99942
5999999.99934
6000000.0006
6000000.00006
5999999.99959
6000000.00202
6000000.0008
6000000.00133
5999999.99989
5999999.99904
5999999.99979
5999999.99613
5999999.99635
6000000.00146
6000000.00014
5999999.99935
5999999.99975
5999999.99929
5999999.99987
5999999.9995
6000000.00018
5999999.99953
6000000.00005
6000000.00013
6000000.00001
6000000.00005
5999999.99977
6000000.00018
6000000.00006
5999999.99991
5999999.99989
5999999.9999
6000000.00002
6000000.00004
5999999.9999
5999999.99989
5999999.99983
6000000.00001
5999999.99988
5999999.99993
5999999.99988
5999999.99993
6000000.00001
6000000.00001
5999999.99988
5999999.99998
6000000
5999999.99998
5999999.99899
6000000.0014
5999999.99858
5999999.99973
5999999.99971
5999999.99974
6000000.00003
5999999.99998
6000000.00001
6000000.00004
6000000.0002
6000000.0001
6000000.00001
6000000.00001
6000000.00005
5999999.99865
6000000.0018
6000000.00056
5999999.99957
5999999.99545
5999999.99353
6000000.00154
6000000.00311
6000000.00124
6000000.00416
5999999.99715
6000000.00366
5999999.99509
6000000.00035
5999999.99731
6000000.00064
6000000.00066
6000000.00118
6000000
6000000.00147
5999999.99835
6000000.00035
6000000.00003
6000000.00002
6000000.00018
6000000.00003
6000000.00023
5999999.99937
6000000.00066
6000000.00017
6000000.00001
6000000.00001
5999999.99993
5999999.99993
6000000.00002
6000000.00008
5999999.99957
5999999.9992
5999999.99923
5999999.99921
5999999.99993
5999999.9997
5999999.99886
6000000.00082
6000000.00074
6000000.00026
6000000.00158
5999999.99873
5999999.99714
6000000.00585
6000000.00308
6000000.00115
6000000.00325
5999999.99799
5999999.99972
6000000.00006
5999999.99996
6000000.00007
6000000.00006
6000000.00022
6000000.00001
6000000.00117
5999999.99927
5999999.99969
5999999.99987
5999999.99996
6000000.00044
6000000.00256
5999999.99964
5999999.99843
6000000.00375
6000000.00118
6000000.00145
6000000.00075
5999999.99803
5999999.99894
6000000.00514
6000000.00316
6000000.00272
5999999.99881
5999999.99815
6000000.00179
5999999.99993
5999999.99918
5999999.99839
6000000.00156
6000000.00094
6000000.00015
6000000.00055
5999999.99976
6000000.00021
5999999.99986
6000000.00039
6000000.00052
6000000.00047
6000000.00019
5999999.99989
5999999.99922
6000000.00249
6000000.00084
5999999.99587
5999999.99631
6000000.00373
6000000.0019
6000000.00045
5999999.99906
6000000.0016
5999999.99856
6000000.00074
6000000.00233
6000000.00209
5999999.99642
6000000.00301
6000000.00189
6000000.00479
5999999.99563
5999999.99763
6000000.00174
6000000.00039
5999999.99407
5999999.99906
6000000.00141
6000000.00499
5999999.9983
6000000.00217
6000000.00047
6000000.00498
5999999.99666
6000000.00081
6000000.00098
5999999.99751
6000000.00298
6000000.00368
6000000.00383
6000000.00744
5999999.9946
5999999.99715
6000000.00365
6000000.00429
5999999.9957
5999999.99463
6000000.00167
5999999.9979
6000000.00003
6000000.00054
5999999.99834
6000000.00351
5999999.99877
6000000.00195
5999999.99766
5999999.99699
6000000.00197
6000000.00352
6000000.00012
6000000.00387
6000000.00238
6000000.00088
5999999.99936
6000000
5999999.99881
6000000.00275
6000000.00739
5999999.99698
5999999.99882
5999999.99165
6000000.00347
6000000.00407
5999999.99603
5999999.99731
5999999.99679
5999999.99796
5999999.99722
5999999.99978
5999999.9994
6000000.00015
5999999.99993
5999999.99931
6000000.00132
5999999.99664
5999999.99757
5999999.99738
6000000.00354
5999999.99978
5999999.99991
6000000.00078
5999999.99924
6000000.00118
6000000.00013
6000000.00122
6000000.00445
5999999.99709
5999999.99653
5999999.99551
6000000.00258
6000000.00271
5999999.99527
5999999.99859
5999999.99714
6000000.00086
5999999.998
5999999.99624
6000000.00327
6000000.00199
6000000.00035
6000000.00088
5999999.99995
6000000.00015
6000000.00004
6000000.00004
6000000.00001
5999999.99998
5999999.99993
5999999.99993
6000000.00015
6000000.00001
5999999.99971
6000000.00072
6000000.00302
6000000.00035
6000000.00022
6000000.0013
5999999.99941
6000000.00158
6000000.00042
5999999.99972
5999999.99994
6000000.00012
6000000.0011
5999999.99861
5999999.99816
6000000.00165
5999999.99838
5999999.99995
5999999.99981
5999999.99993
5999999.99989
6000000.00001
5999999.99987
6000000.00004
6000000.00003
5999999.99828
6000000.00194
5999999.99981
5999999.99957
6000000.00031
5999999.99743
6000000.00049
6000000.00034
6000000.00004
6000000.00001
5999999.99954
6000000.00194
6000000.00003
5999999.99995
6000000.00038
5999999.99983
6000000.00024
5999999.99872
6000000.00313
6000000.00252
5999999.9975
5999999.99794
6000000.00191
5999999.99823
6000000.00207
5999999.99965
6000000.00001
6000000.00001
5999999.99982
6000000.00002
5999999.99988
6000000.00058
5999999.99855
6000000.00125
6000000.00037
6000000.00012
5999999.9997
6000000.00065
5999999.99817
6000000.00396
6000000.00313
5999999.99738
6000000.00153
6000000.00301
6000000.00372
5999999.99761
5999999.99747
6000000.00147
5999999.9992
5999999.99997
6000000.00007
5999999.99994
5999999.99993
5999999.99998
6000000.00001
5999999.99991
5999999.99994
5999999.99991
5999999.99995
5999999.99943
6000000.00098
5999999.99844
5999999.9993
6000000.00142
5999999.99619
6000000.00416
6000000.00285
6000000.00151
5999999.99893
6000000.00272
6000000.00358
5999999.9983
5999999.99738
6000000.00393
5999999.99969
6000000.00407
6000000.00528
6000000.00092
6000000.00455
6000000.00017
5999999.9999
6000000.00111
6000000.00069
6000000.00032
6000000.00004
6000000.00301
5999999.99865
6000000.00103
6000000.00221
6000000.00388
6000000.001
5999999.99682
6000000.00055
6000000.00015
5999999.99992
5999999.99949
6000000.00378
6000000.0015
5999999.99862
6000000.00157
5999999.99991
5999999.99986
6000000.00067
5999999.9993
6000000.00139
5999999.99285
6000000.00306
6000000.00268
5999999.99939
5999999.99995
6000000.00042
6000000.00025
6000000.00016
6000000
6000000.00001
6000000
6000000.00001
5999999.99989
6000000.00001
5999999.99988
6000000
6000000.00001
5999999.99989
6000000.00015
5999999.99999
5999999.99988
6000000.00001
5999999.99996
5999999.99945
5999999.99991
6000000.00008
6000000.00064
5999999.9987
5999999.9986
6000000.00025
6000000.00023
5999999.99976
6000000.00004
5999999.99951
6000000.00148
6000000.00094
6000000.00029
6000000.00019
6000000.00001
5999999.99911
6000000.00141
5999999.99644
6000000.00522
5999999.99684
5999999.99657
6000000.00438
6000000.00241
6000000.00417
6000000.00007
5999999.99987
5999999.99636
5999999.99617
5999999.99703
6000000.00026
5999999.99712
6000000.00268
6000000.00002
5999999.99893
6000000.00053
5999999.99819
6000000.00092
5999999.99797
6000000.00299
5999999.99607
5999999.99636
6000000.00531
5999999.99679
5999999.99651
5999999.99868
6000000.00073
6000000.00089
6000000.00051
6000000.00001
6000000.00051
5999999.99975
6000000.0013
5999999.99691
6000000.00093
6000000.0003
6000000.00006
5999999.9973
5999999.99951
5999999.99967
5999999.99867
5999999.99899
6000000.00018
5999999.99996
6000000.00015
6000000.00093
5999999.99912
5999999.99934
6000000.00206
5999999.99948
5999999.99998
5999999.99998
6000000.00001
6000000.00001
6000000.00011
6000000.00001
6000000.00001
6000000.0001
6000000.00052
5999999.99871
6000000.00005
5999999.99998
6000000.00001
6000000.00001
6000000.00042
5999999.99888
6000000.00152
6000000.0015
5999999.9964
6000000.00522
5999999.9953
5999999.99355
6000000.00299
6000000.00348
5999999.99513
5999999.9984
5999999.999
5999999.99977
6000000.00074
5999999.99895
6000000.00193
5999999.9983
5999999.99884
5999999.99983
5999999.99917
6000000.00107
5999999.99842
6000000.00124
6000000.00246
5999999.99651
5999999.99674
5999999.99697
5999999.99976
6000000.00516
6000000.00169
5999999.99623
5999999.99293
6000000.00427
6000000.00365
5999999.99563
5999999.99827
6000000.00282
6000000.00291
5999999.99643
5999999.99912
6000000.00196
5999999.99983
6000000.00004
6000000.00001
6000000.00001
6000000.00006
6000000.00089
5999999.99922
5999999.99929
5999999.99976
5999999.9999
6000000.0002
6000000.00003
6000000.00002
5999999.99943
5999999.99872
6000000.00044
5999999.99998
6000000.00002
6000000.00001
5999999.99999
5999999.99982
6000000.00001
6000000.00003
5999999.99994
5999999.99926
6000000.00009
6000000.00167
5999999.99835
5999999.99997
5999999.99992
5999999.99637
6000000.00201
6000000.00061
6000000.00157
6000000.00121
6000000.00077
6000000.00027
6000000.0008
5999999.99861
6000000.00224
5999999.99849
6000000.00133
6000000.00184
6000000.00367
5999999.99907
5999999.99893
6000000.00443
6000000.00165
6000000.00177
6000000.00134
5999999.99703
5999999.99943
6000000.00077
6000000.00024
5999999.99849
5999999.99844
6000000.00064
5999999.99736
5999999.99972
5999999.99774
5999999.99992
6000000.00134
5999999.99964
5999999.99909
5999999.99931
6000000.00001
5999999.99988
6000000.00015
6000000.00006
6000000.00001
5999999.99993
6000000.00029
6000000.00102
5999999.99787
5999999.99994
6000000.00009
6000000.00001
6000000.00007
6000000.00002
6000000.00002
6000000.00058
5999999.99926
6000000.00108
6000000.0012
5999999.99782
6000000.00307
5999999.99592
5999999.99954
6000000.00241
6000000.00489
6000000.00285
6000000.00158
6000000.00126
5999999.99581
5999999.99846
5999999.99879
5999999.9997
6000000.00114
6000000.00514
5999999.995
5999999.99631
5999999.99518
6000000.00447
6000000.00201
6000000.00232
5999999.99947
6000000.00039
6000000.0006
6000000.00068
6000000.00008
5999999.99962
6000000.00001
6000000.00001
6000000
6000000.00018
5999999.99947
6000000.00097
5999999.99903
6000000.00067
5999999.99861
5999999.99598
6000000.00063
6000000.0009
5999999.99633
5999999.99649
6000000.00368
5999999.99778
5999999.99504
6000000.00217
6000000.00494
5999999.99637
6000000.00238
5999999.99935
5999999.99941
6000000.00269
5999999.99988
6000000.00005
6000000.00001
6000000.00001
6000000.00002
6000000.00001
6000000.00002
6000000.00001
6000000.00007
6000000.00017
6000000.00022
6000000.00003
6000000.00001
6000000.00001
5999999.99977
6000000.00153
5999999.99814
6000000.00276
6000000.0038
5999999.9994
6000000.00132
6000000.00103
6000000.00157
5999999.99967
6000000.00035
5999999.99612
6000000.00052
5999999.99918
6000000.00156
6000000.00077
5999999.99941
5999999.99923
5999999.99969
5999999.99984
5999999.99999
5999999.99962
6000000.00057
6000000.00144
5999999.99911
5999999.99982
5999999.99986
6000000.00011
6000000.00002
6000000
5999999.99992
5999999.99962
6000000.00043
5999999.99982
5999999.99776
6000000.00236
5999999.998
6000000.00218
5999999.99965
5999999.99985
5999999.99998
5999999.99966
6000000.00161
5999999.99685
6000000.00122
5999999.99987
5999999.9999
6000000.00002
5999999.99974
5999999.99996
5999999.99994
6000000.00007
5999999.99988
5999999.99937
6000000.00014
5999999.99994
5999999.99993
6000000
6000000.00008
5999999.99994
6000000
6000000
5999999.99994
5999999.99997
6000000.00001
5999999.99993
6000000.00021
6000000.00001
6000000.00013
6000000.00009
6000000.00067
5999999.99907
6000000.00159
5999999.99777
6000000.00125
6000000.00079
6000000.00153
6000000.00201
5999999.99765
5999999.9998
5999999.99864
6000000.0006
5999999.99957
5999999.99887
6000000.00052
5999999.99893
5999999.99964
6000000.00002
6000000.00016
6000000.00223
6000000.0009
6000000.00246
5999999.99942
5999999.99994
6000000.00142
5999999.99624
6000000.0013
5999999.99763
6000000.00281
6000000.00307
5999999.99563
5999999.99754
5999999.99645
6000000.00381
6000000.0013
6000000.00469
5999999.99849
5999999.99678
6000000.00087
5999999.99509
5999999.99661
5999999.99769
5999999.99844
6000000.00056
5999999.99703
5999999.99859
5999999.99375
5999999.99979
5999999.99578
5999999.99799
5999999.99771
5999999.99708
5999999.99769
5999999.9961
6000000.00227
6000000.00021
6000000.00044
5999999.99754
6000000.00069
5999999.99973
5999999.99993
6000000.00015
5999999.99986
5999999.99993
5999999.99736
6000000.00291
5999999.99406
5999999.99357
6000000.00228
5999999.99482
5999999.99598
6000000.00431
5999999.99638
5999999.99542
6000000.00041
6000000.00041
6000000.00001
6000000.00017
6000000.00003
6000000.00001
5999999.99986
6000000.00041
5999999.99966
6000000.00037
6000000.00013
6000000.00002
6000000.00003
5999999.99993
5999999.99994
6000000.00007
6000000.00042
5999999.99932
5999999.99946
6000000.00074
5999999.99961
5999999.99994
5999999.99988
5999999.99973
5999999.99942
6000000.00039
5999999.9999
5999999.99937
5999999.99994
5999999.99966
6000000.00015
6000000.00073
5999999.9995
6000000.00036
6000000.00106
6000000.00169
5999999.99747
5999999.99878
6000000.00153
6000000.00022
6000000.0001
6000000.00069
5999999.99863
6000000.00132
6000000.00093
6000000.00058
5999999.99946
5999999.99999
5999999.99855
6000000.0015
6000000.00022
6000000.00111
5999999.99963
5999999.9992
6000000.00293
6000000.00391
5999999.99301
5999999.99641
6000000.00272
6000000.00121
5999999.99935
6000000.00076
6000000.00021
6000000.00189
5999999.99937
6000000.00026
6000000.00001
5999999.99992
6000000
6000000.00003
5999999.99999
5999999.99998
5999999.99999
6000000
6000000.00003
6000000.00011
6000000
6000000
6000000.00001
6000000
6000000.00011
6000000
6000000.00001
5999999.99994
5999999.99996
6000000.00011
5999999.99999
6000000
6000000.00011
6000000
6000000
5999999.99993
6000000.00001
5999999.99995
6000000.00001
6000000.00013
5999999.99965
5999999.99962
5999999.99993
6000000
6000000.00192
5999999.9997
6000000
5999999.99994
6000000.00004
6000000
6000000.00008
5999999.99994
6000000
6000000
5999999.99994
5999999.99998
6000000.00021
5999999.99934
6000000.00125
6000000.00028
5999999.99953
6000000.00099
5999999.999
6000000.0015
6000000.00286
5999999.9986
6000000.00051
6000000.00457
6000000.00055
6000000.00007
6000000.00003
5999999.99988
6000000.00004
6000000.00006
6000000.00018
6000000.00004
6000000.00003
6000000.00003
5999999.99988
6000000.00015
6000000.00015
6000000.0002
6000000.00014
5999999.99989
6000000.00001
5999999.99993
6000000.00001
6000000.00002
6000000.00009
5999999.99925
5999999.99879
6000000.00301
5999999.99865
6000000.00185
5999999.99795
5999999.9992
5999999.99991
5999999.99866
5999999.99931
6000000.00151
5999999.99744
5999999.99579
6000000.00081
5999999.99559
5999999.99411
6000000.00212
5999999.99723
5999999.99997
5999999.99734
6000000.00131
6000000.00128
5999999.9986
6000000.00188
5999999.99906
5999999.99889
6000000.00103
6000000.0009
6000000.00038
5999999.99984
6000000
6000000.00004
5999999.99993
6000000.00002
6000000.00046
5999999.99991
6000000.00041
5999999.99949
5999999.99936
6000000.00021
5999999.99897
5999999.99988
5999999.99872
5999999.99922
5999999.99949
6000000
5999999.99919
6000000.00172
5999999.99958
5999999.99973
5999999.99989
6000000
5999999.99998
5999999.9999
5999999.99993
6000000.00012
5999999.99998
5999999.99998
6000000.00006
5999999.99998
5999999.99998
6000000.00002
5999999.99998
6000000.00006
5999999.99993
6000000.00021
5999999.99873
5999999.9992
6000000.00017
5999999.99999
5999999.99998
5999999.99998
5999999.99998
5999999.99993
5999999.99998
5999999.99998
5999999.99994
5999999.99962
6000000.00047
5999999.99986
5999999.99978
5999999.99994
5999999.99977
6000000.00097
5999999.99961
5999999.99988
5999999.99997
6000000.00002
5999999.99993
5999999.99998
5999999.9999
5999999.99993
5999999.99998
5999999.99998
5999999.9997
6000000.0002
5999999.99915
6000000.00176
5999999.99956
6000000.00009
6000000.00002
5999999.99993
5999999.99994
6000000.00027
5999999.99984
5999999.99696
6000000.00217
6000000.00008
6000000.0001
6000000.00006
6000000.00012
6000000.00041
5999999.99913
6000000.00184
6000000.00396
6000000.00113
5999999.999
6000000.00303
6000000.00171
5999999.99806
6000000.0031
6000000.00027
6000000.00189
5999999.99766
5999999.99824
5999999.99989
5999999.99921
6000000.0002
5999999.99843
6000000.00201
6000000.00057
5999999.99983
6000000.00026
5999999.999
6000000.00085
5999999.99889
6000000.00187
5999999.9972
6000000.00307
6000000.00343
5999999.99807
6000000.00244
5999999.99509
5999999.9951
6000000.00308
6000000.00176
6000000.00465
5999999.99785
5999999.99803
6000000.00302
5999999.99756
5999999.99896
5999999.99933
5999999.99954
6000000.00013
5999999.99972
6000000.0001
5999999.99975
5999999.99996
5999999.99986
5999999.99913
6000000.00078
6000000.00021
5999999.99995
6000000.00025
5999999.99969
6000000.00034
5999999.99817
5999999.99969
5999999.99997
5999999.99979
5999999.99943
5999999.99902
6000000.00139
6000000.00048
5999999.99983
6000000.00388
6000000.00183
5999999.99679
6000000.00198
5999999.99937
6000000.00372
6000000.00285
5999999.99643
5999999.99759
5999999.99886
6000000.00498
6000000.00242
5999999.99657
5999999.99809
5999999.99552
6000000.00191
5999999.99624
5999999.99612
5999999.99901
5999999.99511
6000000.00295
5999999.99745
5999999.9978
5999999.99903
6000000.00118
5999999.99837
5999999.99832
6000000.00169
6000000.00117
5999999.99815
5999999.99703
5999999.9969
5999999.99699
5999999.99774
5999999.99779
6000000.00002
5999999.99605
5999999.99375
6000000.00128
5999999.99911
5999999.9972
5999999.99747
5999999.99589
5999999.99536
6000000.005
5999999.99738
5999999.99501
5999999.99931
5999999.99513
6000000.00146
6000000.00327
5999999.994
5999999.99593
5999999.99734
6000000.00319
6000000.00176
5999999.99773
6000000.00391
6000000.00287
5999999.99925
6000000.00488
5999999.9958
5999999.99516
6000000.00271
6000000.00052
5999999.99979
5999999.99587
5999999.9972
6000000.0015
5999999.99706
5999999.99893
6000000.00197
5999999.99942
6000000.00239
6000000.00534
6000000.00235
5999999.99991
5999999.995
5999999.99758
6000000.00565
6000000.00181
5999999.99524
5999999.99816
6000000.00039
6000000.00473
6000000.00101
5999999.99951
6000000.00046
6000000.00132
5999999.99966
5999999.99882
6000000.00281
6000000.00177
5999999.99795
6000000.0024
5999999.99721
5999999.99985
5999999.99796
6000000.0009
6000000.00142
5999999.99552
5999999.99993
6000000.00061
5999999.99538
5999999.99817
6000000.00204
5999999.99879
5999999.99857
6000000.00201
5999999.99923
5999999.99783
5999999.99698
5999999.99898
5999999.99721
5999999.99964
5999999.99818
6000000.00559
5999999.99852
6000000.00012
6000000.00602
5999999.99805
6000000.00156
6000000.00053
6000000.00872
5999999.99803
6000000.00087
6000000.00644
6000000.00593
5999999.99921
5999999.9972
6000000.01043
6000000.00833
6000000.00515
5999999.99922
5999999.99771
6000000.00839
6000000.00845
6000000.0019
6000000.00529
6000000.00251
5999999.99431
6000000.00735
6000000.00742
6000000.00052
5999999.99787
6000000.00838
6000000.00225
5999999.99374
6000000.00245
6000000.00168
6000000.00882
6000000.00629
5999999.99783
6000000.00118
6000000.00735
5999999.99632
5999999.99868
6000000.00684
6000000.00963
6000000.00089
6000000.00561
6000000.00612
6000000.00409
5999999.99804
6000000.00156
6000000.00723
6000000.00765
6000000.00876
6000000.00288
6000000.00266
6000000.00536
6000000.00846
6000000.00048
6000000.00218
6000000.00512
5999999.99696
6000000.00511
6000000.00405
6000000.00822
6000000.00344
6000000.00745
6000000.00542
5999999.99362
6000000.00703
6000000.00183
5999999.99831
6000000.0078
5999999.99926
5999999.99946
5999999.99875
6000000.00003
5999999.99898
6000000.0001
5999999.99842
5999999.99941
5999999.9993
5999999.99964
5999999.99806
5999999.99781
5999999.99971
5999999.99829
6000000.00051
5999999.99815
5999999.99858
5999999.99766
6000000.00014
5999999.99811
5999999.99754
5999999.9992
5999999.99991
5999999.99912
5999999.99836
5999999.99898
5999999.99819
5999999.99846
5999999.99951
5999999.99618
5999999.99824
6000000.00045
5999999.99898
5999999.99685
5999999.99936
5999999.99817
5999999.99996
5999999.9988
5999999.99855
5999999.99726
5999999.99885
5999999.99968
5999999.9984
5999999.99945
5999999.99939
5999999.99844
5999999.99848
5999999.99923
5999999.99724
5999999.99635
5999999.99934
5999999.99958
6000000.00026
6000000.00041
5999999.99839
5999999.99943
5999999.99755
5999999.998
5999999.99879
5999999.9996
5999999.99917
6000000.00036
6000000.00228
5999999.99849
5999999.99936
5999999.99947
5999999.99979
5999999.99962
6000000.0007
5999999.99965
5999999.99955
6000000.00036
5999999.99968
5999999.99964
5999999.99966
5999999.99979
6000000.00046
5999999.99992
5999999.99975
5999999.99965
6000000.00031
6000000.00044
5999999.99987
6000000.00038
5999999.99986
6000000.00048
5999999.99972
5999999.99964
6000000.00038
5999999.99994
6000000.00051
5999999.99974
5999999.99992
5999999.99956
6000000.00035
6000000.00057
6000000.00026
6000000.0006
5999999.99964
6000000.00053
6000000.00054
5999999.99963
6000000.00015
5999999.99973
6000000.00038
6000000.00002
5999999.99948
6000000.00061
6000000.0002
6000000.00039
6000000.00042
5999999.99952
5999999.99966
5999999.99988
6000000.00025
6000000.00015
6000000.0005
6000000.00049
5999999.9998
5999999.99992
6000000.0003
6000000.00006
6000000.00041
6000000.00022
6000000.0002
6000000.00057
5999999.99965
6000000.00053
6000000.00058
6000000.00088
6000000.00088
6000000.00092
6000000.00058
6000000.00087
6000000.00074
6000000.00114
6000000.00071
6000000.0008
6000000.00071
6000000.00074
6000000.00069
6000000.00072
6000000.0008
6000000.00086
6000000.00058
6000000.00082
6000000.00094
6000000.00077
6000000.00092
6000000.00097
6000000.00058
6000000.00078
6000000.00075
6000000.00075
6000000.00064
6000000.00054
6000000.00084
6000000.00078
6000000.00078
6000000.00082
6000000.00087
6000000.00103
6000000.00062
6000000.00089
6000000.00065
6000000.00069
6000000.00052
6000000.00074
6000000.00086
6000000.00097
6000000.00096
6000000.00082
6000000.00079
6000000.00086
6000000.00063
6000000.00085
6000000.001
6000000.00102
6000000.00071
6000000.00064
6000000.00067
6000000.00086
6000000.00086
6000000.0008
6000000.00087
6000000.00094
6000000.00089
6000000.00085
6000000.00076
6000000.00099
6000000.00115
6000000.00082
5999999.99907
5999999.99894
5999999.99896
5999999.99908
5999999.99901
5999999.99937
5999999.99896
5999999.99891
5999999.99884
5999999.99884
5999999.99907
5999999.99919
5999999.99932
5999999.99896
5999999.99887
5999999.99893
5999999.99892
5999999.99913
5999999.99904
5999999.99911
5999999.999
5999999.99891
5999999.99928
5999999.99921
5999999.99886
5999999.99898
5999999.99937
5999999.99901
5999999.99908
5999999.99915
5999999.99902
5999999.99945
5999999.99913
5999999.99912
5999999.99899
5999999.99904
5999999.99924
5999999.99883
5999999.99871
5999999.99888
5999999.99916
5999999.99914
5999999.99896
5999999.99905
5999999.99911
5999999.99899
5999999.99941
5999999.99917
5999999.99893
5999999.99907
5999999.99899
5999999.99886
5999999.99885
5999999.99884
5999999.99899
5999999.99903
5999999.99915
5999999.99911
5999999.99911
5999999.99904
5999999.999
5999999.99906
5999999.99894
5999999.99892
5999999.9995
5999999.99935
5999999.99942
5999999.99974
5999999.99956
5999999.9996
5999999.99966
5999999.99959