/*--------------------------------*- C++ -*----------------------------------*\
  =========                 |
  \\      /  F ield         | OpenFOAM: The Open Source CFD Toolbox
   \\    /   O peration     | Website:  https://openfoam.org
    \\  /    A nd           | Version:  6
     \\/     M anipulation  |
\*---------------------------------------------------------------------------*/
FoamFile
{
    version     2.0;
    format      ascii;
    class       volVectorField;
    location    "4e-05";
    object      U;
}
// * * * * * * * * * * * * * * * * * * * * * * * * * * * * * * * * * * * * * //

dimensions      [0 1 -1 0 0 0 0];

internalField   nonuniform List<vector> 
8192
(
(-88.3220000002 0 -2.67108001651e-10)
(-88.3219999996 0 -3.31024281629e-11)
(-88.3220000001 0 -6.64542228504e-11)
(-88.3220000001 0 -1.22077219006e-10)
(-88.3219999997 0 -5.61279092704e-11)
(-88.3219999999 0 2.37876128811e-11)
(-88.3220000001 0 -1.39847433916e-12)
(-88.322 0 1.81255261008e-11)
(-88.322 0 -1.50818703706e-10)
(-88.322 0 -4.55987087462e-10)
(-88.322 0 -4.49778337708e-10)
(-88.322 0 2.65642928188e-10)
(-88.322 0 5.20395791606e-10)
(-88.322 0 -4.67224314231e-10)
(-88.322 0 -5.30599109753e-10)
(-88.322 0 2.4153159002e-10)
(-88.322 0 9.85051551884e-11)
(-88.322 0 3.81927639285e-10)
(-88.3220000001 0 -3.67640086043e-10)
(-88.322 0 -3.4360605134e-10)
(-88.3219999999 0 2.50334410408e-10)
(-88.3220000001 0 2.90014541879e-10)
(-88.3220000001 0 -3.05756868475e-10)
(-88.3219999999 0 -3.88242583057e-10)
(-88.322 0 9.91720309231e-11)
(-88.322 0 7.51908817508e-11)
(-88.3219999999 0 1.22943900111e-10)
(-88.322 0 9.35215324125e-11)
(-88.3220000002 0 1.51105687624e-10)
(-88.322 0 -6.81384222109e-11)
(-88.3219999999 0 1.21882292649e-10)
(-88.3219999999 0 1.80577611395e-11)
(-88.3219999994 0 5.55790487089e-11)
(-88.322000001 0 3.43428153544e-10)
(-88.3220000016 0 -4.415407729e-10)
(-88.3219999992 0 -4.34459365786e-10)
(-88.3219999999 0 -1.98897350048e-11)
(-88.3219999996 0 -4.21200065116e-10)
(-88.321999999 0 1.66079784338e-10)
(-88.3220000004 0 8.30106042529e-11)
(-88.3220000001 0 7.92240583581e-12)
(-88.322 0 9.71291175199e-12)
(-88.322 0 -1.55476718917e-11)
(-88.322 0 -1.06449026917e-11)
(-88.322 0 -4.15259182e-11)
(-88.322 0 -2.1477989645e-11)
(-88.322 0 -1.21767883102e-11)
(-88.322 0 -5.40373079563e-12)
(-88.322 0 -1.28267049265e-12)
(-88.322 0 -3.19345706964e-11)
(-88.3219999999 0 2.73416036403e-11)
(-88.3220000002 0 -2.88312633751e-13)
(-88.3219999997 0 -1.12730626995e-10)
(-88.3219999996 0 1.82036602934e-10)
(-88.3220000008 0 1.19591722992e-10)
(-88.3220000004 0 -1.96871213878e-10)
(-88.3219999998 0 -4.63830151922e-11)
(-88.3219999998 0 -1.07588402579e-10)
(-88.3220000001 0 -3.29794315063e-11)
(-88.3219999994 0 -1.60289005989e-10)
(-88.3219999989 0 2.32108607077e-10)
(-88.3219999998 0 3.19961023154e-10)
(-88.3220000005 0 3.03078917792e-10)
(-88.3220000012 0 8.11779571379e-11)
(-88.322 0 -1.18090667212e-10)
(-88.322 0 -4.51625110082e-11)
(-88.3220000001 0 4.43154032628e-11)
(-88.3219999999 0 5.76572743666e-12)
(-88.322 0 8.43315126956e-11)
(-88.3220000001 0 -5.99761843085e-11)
(-88.3219999999 0 1.00994149654e-11)
(-88.3220000003 0 3.60787520226e-14)
(-88.3220000009 0 -2.87656556353e-12)
(-88.3220000005 0 -2.40998847367e-11)
(-88.3219999986 0 1.54636246375e-11)
(-88.3219999981 0 -9.85516210875e-11)
(-88.3220000014 0 -1.24825835128e-11)
(-88.322000002 0 -1.01104328408e-10)
(-88.3219999987 0 -1.7505566124e-10)
(-88.3219999988 0 1.64755621055e-10)
(-88.3219999997 0 5.7892087029e-11)
(-88.322000001 0 1.07699471754e-10)
(-88.3220000014 0 -1.98783982509e-10)
(-88.3219999988 0 -1.25425590547e-10)
(-88.3219999989 0 -1.83739863024e-12)
(-88.3220000011 0 8.12466746228e-11)
(-88.3220000012 0 1.12729339117e-10)
(-88.3219999992 0 -5.67163956832e-11)
(-88.3219999991 0 3.12355309568e-10)
(-88.322 0 -2.17021296576e-10)
(-88.322 0 2.53138700755e-10)
(-88.322 0 2.04312492403e-10)
(-88.3220000002 0 3.00835726097e-11)
(-88.322 0 5.70557335894e-11)
(-88.3219999999 0 2.22415621071e-11)
(-88.3220000001 0 -1.73653089722e-11)
(-88.3219999999 0 -9.90656337538e-11)
(-88.3220000001 0 -2.976814047e-10)
(-88.322 0 3.08594512677e-10)
(-88.3219999999 0 4.07668415311e-10)
(-88.3220000001 0 -9.32756129642e-12)
(-88.322 0 2.42913486419e-10)
(-88.322 0 -1.64882636979e-10)
(-88.322 0 -9.6661648193e-11)
(-88.322 0 2.99681588811e-11)
(-88.322 0 -1.76002977809e-11)
(-88.322 0 3.97328946781e-12)
(-88.322 0 -6.78663655235e-11)
(-88.322 0 -3.26217947572e-10)
(-88.322 0 -2.2787240498e-10)
(-88.322 0 -2.41285372478e-10)
(-88.322 0 -2.2329353693e-10)
(-88.322 0 -2.65239703635e-10)
(-88.322 0 -1.10513204157e-10)
(-88.322 0 2.22673585338e-10)
(-88.322 0 -3.21177431759e-11)
(-88.3219999999 0 2.21420708522e-11)
(-88.322 0 -3.06746883191e-11)
(-88.322 0 -1.94712563906e-10)
(-88.322 0 3.60523722354e-10)
(-88.322 0 -9.2488789345e-11)
(-88.3220000001 0 -2.21497123919e-10)
(-88.322 0 -3.62415887756e-10)
(-88.322 0 5.2002920473e-10)
(-88.322 0 1.66349140592e-10)
(-88.322 0 -6.95458613289e-10)
(-88.322 0 -7.76396526364e-10)
(-88.322 0 -3.2535189588e-10)
(-88.3219999997 0 3.21455854058e-11)
(-88.3219999993 0 3.07754684873e-11)
(-88.322 0 -8.35643756325e-12)
(-88.322 0 8.08515346175e-11)
(-88.3219999999 0 -3.73396144936e-11)
(-88.322 0 4.97165676173e-11)
(-88.322 0 -7.9974800026e-12)
(-88.322 0 -1.37513703822e-11)
(-88.3220000001 0 1.27587760612e-10)
(-88.322 0 4.30967586124e-10)
(-88.3220000001 0 4.24846040419e-10)
(-88.322 0 -2.37682076691e-10)
(-88.322 0 -4.89445037965e-10)
(-88.3220000003 0 4.04407279904e-10)
(-88.3219999994 0 4.80909613173e-10)
(-88.3219999994 0 -2.4660445287e-10)
(-88.3220000001 0 -1.00198458052e-10)
(-88.3220000005 0 -3.55616256496e-10)
(-88.3220000005 0 3.71937162901e-10)
(-88.3219999996 0 3.28468202508e-10)
(-88.3219999995 0 -2.45553135168e-10)
(-88.3219999998 0 -2.28656653972e-10)
(-88.3220000004 0 3.20635166881e-10)
(-88.3219999996 0 3.82748218451e-10)
(-88.3220000003 0 -5.36081819659e-11)
(-88.322 0 -7.01327219023e-11)
(-88.3219999991 0 -5.84169257956e-11)
(-88.3220000004 0 1.33358895783e-11)
(-88.3220000004 0 4.45362885482e-11)
(-88.322 0 -2.92802564894e-11)
(-88.3220000001 0 8.94081523317e-11)
(-88.3220000002 0 -1.51526366141e-11)
(-88.322 0 -2.91193430291e-10)
(-88.322 0 2.76008924171e-10)
(-88.3220000001 0 3.91135147217e-10)
(-88.322 0 -1.6830082447e-10)
(-88.3220000003 0 -4.20074021116e-10)
(-88.322 0 5.54789116236e-10)
(-88.3219999997 0 3.1599034661e-10)
(-88.322 0 -3.28944295548e-10)
(-88.322 0 -3.10508398686e-10)
(-88.322 0 6.43082847369e-11)
(-88.3220000002 0 -1.86144266744e-10)
(-88.3220000007 0 -5.07479106454e-11)
(-88.3220000003 0 -2.01949108835e-10)
(-88.3219999998 0 3.45840320477e-11)
(-88.322 0 -3.50257294878e-10)
(-88.3219999999 0 -5.11570230338e-10)
(-88.3219999998 0 2.83234749421e-10)
(-88.321999999 0 3.52062467197e-13)
(-88.3219999998 0 -2.00271850957e-10)
(-88.3220000006 0 1.03891705931e-10)
(-88.3219999997 0 -3.27798147491e-10)
(-88.322 0 2.90957241112e-10)
(-88.322 0 -9.57761772571e-12)
(-88.3220000002 0 -2.70897923016e-10)
(-88.322000001 0 -2.40617876469e-10)
(-88.3220000004 0 -2.39793630987e-10)
(-88.3219999986 0 -1.31228714348e-10)
(-88.3219999984 0 -1.09217710116e-10)
(-88.3220000014 0 -1.21057460201e-10)
(-88.3220000017 0 5.9706023259e-11)
(-88.3219999998 0 2.11748700337e-11)
(-88.3219999999 0 2.8567679576e-11)
(-88.322 0 4.28615301182e-10)
(-88.322 0 1.19704765997e-10)
(-88.322 0 2.30443891216e-11)
(-88.322 0 8.72634955097e-11)
(-88.322 0 -6.52121886953e-11)
(-88.322 0 1.75870128842e-11)
(-88.322 0 3.42312380859e-12)
(-88.322 0 2.13782437689e-11)
(-88.322 0 1.04758901924e-11)
(-88.322 0 5.2489718823e-11)
(-88.322 0 3.62110110149e-12)
(-88.3219999999 0 7.15831682978e-11)
(-88.3220000001 0 1.19266243303e-11)
(-88.3220000001 0 1.58415622325e-10)
(-88.3219999999 0 2.04517481185e-10)
(-88.322 0 -1.61525855133e-10)
(-88.322 0 -5.67369736953e-11)
(-88.322 0 -1.51339258421e-10)
(-88.322 0 2.48835273802e-10)
(-88.322 0 2.87235679201e-10)
(-88.322 0 -3.2305610535e-10)
(-88.322 0 -4.89513841171e-10)
(-88.322 0 2.32378128751e-10)
(-88.322 0 3.19168392368e-10)
(-88.322 0 -1.2756815733e-10)
(-88.322 0 4.22334387971e-10)
(-88.3219999999 0 -1.72401839715e-10)
(-88.3219999998 0 -2.69378342765e-11)
(-88.3220000003 0 -1.05816206892e-10)
(-88.3219999999 0 -1.27038482645e-10)
(-88.3219999999 0 1.45004867471e-11)
(-88.3220000009 0 -5.00455073672e-11)
(-88.3219999993 0 -5.11949238129e-12)
(-88.3219999988 0 -3.05386409683e-11)
(-88.3220000009 0 3.52667950645e-11)
(-88.3220000014 0 5.45270181421e-11)
(-88.3219999986 0 -2.87760011925e-11)
(-88.3219999985 0 2.20208145767e-10)
(-88.3220000017 0 -1.79843803064e-12)
(-88.3220000012 0 1.44545919105e-11)
(-88.3219999992 0 -2.55367847454e-11)
(-88.3219999998 0 -1.27321606222e-11)
(-88.3220000002 0 -1.09518530986e-11)
(-88.3220000001 0 7.02228994459e-11)
(-88.3219999998 0 3.54335554753e-10)
(-88.3220000003 0 2.28557118775e-10)
(-88.3220000011 0 2.40331691512e-10)
(-88.3219999987 0 1.66875654156e-10)
(-88.3219999991 0 3.34653739872e-10)
(-88.3220000009 0 1.73899443138e-10)
(-88.3219999998 0 -2.41670410726e-10)
(-88.3220000003 0 8.8254697046e-11)
(-88.3219999995 0 -1.02270439941e-10)
(-88.3219999994 0 2.37471844089e-10)
(-88.3220000011 0 3.98242414742e-10)
(-88.3220000004 0 -4.38527372128e-10)
(-88.3219999999 0 -6.43126255275e-11)
(-88.3219999998 0 3.50190051579e-10)
(-88.3219999997 0 1.26358546148e-10)
(-88.3219999999 0 -3.01954676652e-10)
(-88.3219999997 0 -6.45790726096e-10)
(-88.3219999998 0 7.18851804862e-10)
(-88.3220000001 0 6.17451039658e-10)
(-88.322 0 4.39289894466e-10)
(-88.3220000003 0 -2.36558559898e-10)
(-88.3220000001 0 -5.05365938806e-11)
(-88.322 0 8.54445147526e-11)
(-88.3220000002 0 -2.29097661809e-12)
(-88.322 0 -2.54704882308e-11)
(-88.3219999999 0 1.45901271023e-12)
(-88.322 0 1.5541060777e-11)
(-88.322 0 2.06057323759e-11)
(-88.322 0 1.57822473411e-11)
(-88.322 0 2.03588403614e-12)
(-88.322 0 2.09889679523e-11)
(-88.322 0 -1.01750752312e-10)
(-88.3219999999 0 -1.17803542634e-10)
(-88.322 0 -5.45809437048e-12)
(-88.322 0 -4.69537064526e-13)
(-88.322 0 1.36186186147e-11)
(-88.322 0 5.43483644809e-11)
(-88.3219999999 0 6.52528208926e-11)
(-88.3219999997 0 -4.21010484861e-13)
(-88.3220000008 0 1.15702164619e-11)
(-88.322000001 0 1.33651978186e-11)
(-88.3219999988 0 2.34763742828e-12)
(-88.3219999988 0 2.73410949627e-11)
(-88.3220000003 0 -9.20512481562e-11)
(-88.3220000001 0 4.93216124145e-11)
(-88.3220000001 0 5.33354345271e-12)
(-88.322 0 1.51742921928e-10)
(-88.3220000003 0 2.0603876239e-10)
(-88.3220000006 0 2.29843042696e-10)
(-88.3219999998 0 9.14718804895e-12)
(-88.3219999999 0 1.65064020336e-10)
(-88.3220000002 0 2.46806967801e-10)
(-88.322 0 -1.84669967642e-11)
(-88.322 0 -3.65175327815e-10)
(-88.322 0 -5.49184946151e-10)
(-88.3220000001 0 -7.89645575191e-12)
(-88.3219999999 0 5.4151790342e-10)
(-88.322 0 -7.00771479459e-10)
(-88.3220000001 0 -2.74858181926e-10)
(-88.322 0 2.32083228527e-10)
(-88.322 0 2.64524798424e-10)
(-88.322 0 -5.97120210625e-11)
(-88.322 0 1.66173847064e-10)
(-88.322 0 5.05499790827e-11)
(-88.322 0 1.800966671e-10)
(-88.322 0 -3.02026998917e-11)
(-88.3220000001 0 3.45617494576e-10)
(-88.3219999999 0 4.70058630762e-10)
(-88.3219999998 0 -2.57104345569e-10)
(-88.3220000002 0 -3.7846037363e-11)
(-88.3219999999 0 1.52131985842e-10)
(-88.3220000003 0 -2.60891173183e-11)
(-88.3219999995 0 2.62881865837e-10)
(-88.3219999991 0 -2.57996418868e-10)
(-88.3220000013 0 -2.47967639796e-11)
(-88.3220000011 0 -1.64769209878e-10)
(-88.3219999994 0 2.13486273675e-11)
(-88.322 0 1.24992655308e-10)
(-88.3219999998 0 -2.93369154365e-10)
(-88.322 0 5.28059375876e-10)
(-88.3219999994 0 3.9834794539e-10)
(-88.3219999992 0 2.76947763815e-10)
(-88.3220000002 0 1.18038676255e-10)
(-88.3220000002 0 4.68501783346e-11)
(-88.3220000002 0 -4.6530263022e-11)
(-88.3219999994 0 -1.24869759427e-10)
(-88.322 0 2.27298854267e-10)
(-88.3220000002 0 4.19040162928e-10)
(-88.322 0 -1.18636796114e-10)
(-88.322 0 3.84803239622e-10)
(-88.322 0 3.29625225593e-10)
(-88.322 0 -2.55385822422e-10)
(-88.322 0 -2.19708918155e-11)
(-88.322 0 6.38703482551e-11)
(-88.3220000001 0 -9.32622204225e-12)
(-88.3220000001 0 7.21617539405e-11)
(-88.3219999999 0 9.49157440599e-11)
(-88.3219999999 0 -2.39331995643e-10)
(-88.3219999999 0 3.76810690292e-10)
(-88.3219999999 0 3.29910004679e-10)
(-88.3219999999 0 3.09806527234e-10)
(-88.3220000001 0 9.43283573354e-11)
(-88.3220000001 0 -3.25238810896e-10)
(-88.322 0 -1.75615992924e-10)
(-88.322 0 6.37468075225e-10)
(-88.3219999999 0 7.93781330032e-10)
(-88.3220000002 0 -4.24997532618e-10)
(-88.322 0 -4.55616425612e-10)
(-88.3219999999 0 -2.87830046834e-10)
(-88.3219999998 0 5.65084658677e-11)
(-88.3219999995 0 9.63804059517e-11)
(-88.3219999996 0 -2.17081197171e-10)
(-88.3220000007 0 3.24749144559e-10)
(-88.322 0 3.43272475529e-10)
(-88.3219999995 0 1.70065402602e-11)
(-88.3220000013 0 -2.99504673461e-10)
(-88.3220000005 0 5.9289775769e-11)
(-88.3219999998 0 5.27348792073e-11)
(-88.3220000002 0 6.02679231294e-11)
(-88.3219999993 0 -3.29060434278e-11)
(-88.322 0 -5.66698339011e-13)
(-88.3220000001 0 -2.06173339131e-11)
(-88.3219999999 0 6.27727274374e-12)
(-88.3220000001 0 1.88254752872e-11)
(-88.3219999999 0 2.14394979207e-11)
(-88.322 0 -8.96414927841e-12)
(-88.322 0 6.15694142218e-12)
(-88.322 0 4.91913025064e-12)
(-88.322 0 3.40659065831e-12)
(-88.322 0 2.80628318466e-12)
(-88.3220000001 0 -2.26417960394e-11)
(-88.322 0 1.32978503757e-10)
(-88.3220000001 0 -9.0384708922e-11)
(-88.3220000001 0 -5.6743228284e-11)
(-88.3219999998 0 1.8824062451e-12)
(-88.3220000002 0 -3.71335517114e-11)
(-88.322 0 1.8474796073e-10)
(-88.3219999999 0 -3.55742789054e-10)
(-88.322000001 0 -3.14716488585e-10)
(-88.3220000002 0 2.75157316332e-10)
(-88.3219999994 0 2.0507808038e-10)
(-88.3220000005 0 1.91047838763e-11)
(-88.321999999 0 2.6339503052e-10)
(-88.3219999985 0 -5.55963276561e-11)
(-88.3220000002 0 2.66926656497e-10)
(-88.3220000003 0 -2.72038695519e-10)
(-88.3220000005 0 -7.33590368898e-11)
(-88.3220000007 0 -1.76512034892e-10)
(-88.3220000002 0 3.04926824355e-10)
(-88.3219999995 0 1.74961451538e-11)
(-88.321999999 0 -9.67918730393e-11)
(-88.3220000009 0 1.93531056642e-11)
(-88.3220000001 0 7.6626978e-12)
(-88.3219999989 0 1.40304446747e-11)
(-88.3220000013 0 -4.07889043341e-11)
(-88.3220000007 0 2.43443458068e-11)
(-88.3219999994 0 -7.3733917771e-11)
(-88.322 0 -1.39708742965e-10)
(-88.322 0 3.44305664231e-10)
(-88.3219999998 0 -3.61138435583e-10)
(-88.3220000006 0 -3.91305096808e-10)
(-88.3219999994 0 -6.8607445893e-11)
(-88.3219999989 0 -1.06449731971e-10)
(-88.3220000001 0 -3.3269402188e-11)
(-88.3220000005 0 -7.92671037159e-11)
(-88.3220000011 0 -6.1581910226e-11)
(-88.3220000002 0 2.62642134359e-12)
(-88.3219999988 0 -6.11419679212e-12)
(-88.3219999991 0 2.32919941879e-13)
(-88.3220000009 0 -2.59530328e-12)
(-88.3220000013 0 -1.17734282597e-11)
(-88.322 0 6.22538686904e-11)
(-88.3219999991 0 -5.92761198556e-11)
(-88.3219999993 0 2.55414715233e-11)
(-88.3220000006 0 -1.74970066688e-10)
(-88.3219999998 0 -2.19472244857e-10)
(-88.3219999994 0 -3.81285043918e-10)
(-88.3220000004 0 1.20402640012e-10)
(-88.3220000012 0 -3.15012276313e-10)
(-88.3220000002 0 -2.91365857403e-10)
(-88.3219999992 0 5.60490915623e-10)
(-88.3219999999 0 1.628411892e-10)
(-88.3220000001 0 -1.50373510241e-10)
(-88.3220000002 0 -2.11123071522e-10)
(-88.3219999999 0 -1.43385339605e-10)
(-88.3219999999 0 4.70991673872e-10)
(-88.322 0 -4.45355405871e-11)
(-88.322 0 -1.28698369551e-10)
(-88.322 0 2.09027501145e-11)
(-88.322 0 3.43649573383e-11)
(-88.322 0 -6.33738205101e-11)
(-88.322 0 2.44319763869e-11)
(-88.322 0 2.53048443325e-11)
(-88.322 0 3.36245003482e-12)
(-88.3219999999 0 3.11839677245e-12)
(-88.322 0 -7.92452786627e-12)
(-88.3220000001 0 1.24462647245e-11)
(-88.322 0 -7.94796702505e-12)
(-88.3219999999 0 4.97013631825e-11)
(-88.322 0 -2.92874784689e-11)
(-88.3220000001 0 6.42214052231e-11)
(-88.3219999999 0 -7.83985088124e-11)
(-88.322 0 3.76352421668e-11)
(-88.3220000001 0 3.02621589836e-10)
(-88.3219999999 0 9.50395233047e-11)
(-88.322 0 4.04199084365e-11)
(-88.322 0 4.09099154544e-10)
(-88.322 0 -3.67546352367e-10)
(-88.3219999999 0 -2.53239648977e-10)
(-88.3219999999 0 9.93300798493e-11)
(-88.3220000001 0 1.58580370157e-10)
(-88.3220000002 0 -8.12146039082e-11)
(-88.322 0 5.38570311012e-11)
(-88.3220000001 0 1.20834561565e-10)
(-88.3219999999 0 -2.20827231216e-10)
(-88.322 0 -4.20507472653e-10)
(-88.322 0 2.0770514204e-10)
(-88.322 0 -3.99385675399e-10)
(-88.322 0 -3.34983909819e-10)
(-88.3220000001 0 2.5529231815e-10)
(-88.3220000003 0 1.91833338183e-11)
(-88.3219999991 0 -8.16666643652e-11)
(-88.3220000006 0 2.83939775597e-11)
(-88.3220000017 0 -7.38525438089e-11)
(-88.3219999994 0 -7.37050022832e-11)
(-88.3219999993 0 2.0195320018e-10)
(-88.3219999998 0 -3.82576715915e-10)
(-88.3219999999 0 -3.07201301541e-10)
(-88.3219999999 0 -3.00188168443e-10)
(-88.322 0 -5.47573624215e-11)
(-88.322 0 2.56451094602e-10)
(-88.322 0 2.2836039925e-11)
(-88.322 0 -3.10345437625e-10)
(-88.322 0 -4.29907855859e-10)
(-88.3220000001 0 1.03743725264e-10)
(-88.322 0 2.09636778037e-10)
(-88.3219999999 0 1.08624707425e-10)
(-88.3220000001 0 -2.48073998293e-10)
(-88.322 0 -2.05088620244e-10)
(-88.322 0 1.26205807003e-11)
(-88.322 0 -3.23447114866e-10)
(-88.322 0 -2.63018248543e-10)
(-88.3220000002 0 -1.15343800233e-10)
(-88.3219999996 0 3.38221216984e-10)
(-88.3219999997 0 -3.41000775589e-11)
(-88.3220000012 0 -2.66331403618e-11)
(-88.322000001 0 -7.42008463339e-11)
(-88.3219999992 0 -2.42301974678e-11)
(-88.3219999986 0 9.70772328779e-11)
(-88.322 0 -1.27259619258e-11)
(-88.3220000011 0 2.01609949898e-11)
(-88.3220000001 0 -1.96518710293e-11)
(-88.3219999995 0 -8.23002958655e-12)
(-88.3220000002 0 2.32757182934e-11)
(-88.322 0 4.92307678319e-13)
(-88.3219999999 0 -7.81376478306e-12)
(-88.322 0 -2.81449522234e-11)
(-88.322 0 -1.37358754762e-11)
(-88.3220000001 0 2.24018947189e-11)
(-88.3219999999 0 -8.57256869873e-11)
(-88.3220000001 0 2.00857859848e-11)
(-88.322 0 3.28978320394e-11)
(-88.3219999998 0 -5.84139889023e-11)
(-88.3220000001 0 -2.91113781696e-11)
(-88.322 0 2.31266234475e-11)
(-88.322 0 3.50246717941e-10)
(-88.3220000002 0 3.58801823361e-10)
(-88.3220000001 0 -2.887153659e-10)
(-88.3219999999 0 -2.31536476069e-10)
(-88.3219999999 0 -7.93486750483e-11)
(-88.3219999998 0 -3.32962997709e-10)
(-88.3219999998 0 9.51834639087e-11)
(-88.3219999993 0 -2.91801824007e-10)
(-88.3219999996 0 2.90437707327e-10)
(-88.322000001 0 -6.58164800571e-11)
(-88.3220000004 0 7.68462791572e-11)
(-88.3220000001 0 -1.58675449162e-10)
(-88.3220000001 0 -3.25649367239e-11)
(-88.322 0 -3.49299859615e-11)
(-88.322 0 -2.1496621302e-11)
(-88.322 0 -3.30889405854e-11)
(-88.322 0 2.46411826008e-11)
(-88.322 0 1.56856611753e-11)
(-88.322 0 -4.68333823764e-11)
(-88.322 0 7.02012368007e-11)
(-88.322 0 1.24168243183e-10)
(-88.322 0 -3.68555500925e-10)
(-88.322 0 4.42112596876e-10)
(-88.322 0 4.90100893858e-10)
(-88.322 0 9.60007840938e-11)
(-88.322 0 1.03875409712e-10)
(-88.322 0 1.7838098995e-11)
(-88.322 0 2.6764558615e-11)
(-88.322 0 2.07777296627e-12)
(-88.322 0 9.24006960057e-12)
(-88.322 0 1.05345779971e-12)
(-88.322 0 -1.27391919652e-11)
(-88.322 0 1.32132412614e-11)
(-88.322 0 1.62079154344e-11)
(-88.322 0 3.66742282828e-11)
(-88.322 0 -1.49288829368e-11)
(-88.322 0 -3.01121484146e-11)
(-88.322 0 1.70772254598e-11)
(-88.322 0 -1.48115423307e-11)
(-88.322 0 2.70681517123e-12)
(-88.322 0 -6.43811998939e-11)
(-88.322 0 3.24891356732e-11)
(-88.322 0 1.19107136183e-12)
(-88.322 0 -1.23582391995e-10)
(-88.322 0 2.09104494286e-10)
(-88.3220000001 0 2.49262373837e-11)
(-88.3219999999 0 5.62021388405e-11)
(-88.3219999999 0 -7.77646892161e-11)
(-88.322 0 -6.19108741019e-10)
(-88.322 0 8.72690130525e-11)
(-88.322 0 2.26393842057e-10)
(-88.322 0 4.12676556519e-12)
(-88.322 0 -3.22018266567e-11)
(-88.322 0 7.28742541769e-11)
(-88.322 0 -4.06982103971e-11)
(-88.322 0 -1.75734029833e-11)
(-88.322 0 -1.57643290183e-11)
(-88.322 0 -2.06666414813e-11)
(-88.322 0 4.77262950036e-11)
(-88.3219999999 0 6.51384695905e-12)
(-88.3220000001 0 7.85927815852e-11)
(-88.3220000001 0 -2.143985774e-11)
(-88.3219999998 0 -1.52619890251e-11)
(-88.3219999993 0 -7.25497340691e-11)
(-88.3219999993 0 8.2591533066e-11)
(-88.3220000014 0 8.35822781474e-11)
(-88.3220000013 0 -2.2299778317e-10)
(-88.3219999995 0 -8.87327014374e-11)
(-88.3220000002 0 -9.9914275436e-11)
(-88.3219999997 0 -5.23425661921e-11)
(-88.3219999998 0 1.05499373122e-11)
(-88.3219999995 0 7.17357137015e-11)
(-88.3219999994 0 -7.81972677968e-10)
(-88.3220000005 0 -5.49506722166e-10)
(-88.322 0 -1.83382340642e-10)
(-88.3219999997 0 4.37404722794e-11)
(-88.3219999999 0 1.02045698831e-10)
(-88.3219999999 0 -8.096056767e-11)
(-88.322 0 -2.53309454388e-11)
(-88.3219999999 0 2.31014728888e-11)
(-88.3219999999 0 2.67867031207e-11)
(-88.3220000001 0 -5.09511915089e-11)
(-88.322 0 -6.54002180765e-11)
(-88.322 0 -2.35307250607e-11)
(-88.322 0 -2.96709349803e-11)
(-88.322 0 -1.15207621996e-11)
(-88.322 0 -1.0325787589e-11)
(-88.322 0 -6.87643414027e-12)
(-88.322 0 -9.57379558678e-12)
(-88.322 0 -1.70723409884e-11)
(-88.322 0 -1.75961981558e-11)
(-88.322 0 -1.38449921792e-11)
(-88.322 0 -8.98078913243e-12)
(-88.322 0 3.36096801974e-11)
(-88.322 0 -1.17025028356e-10)
(-88.3219999999 0 -4.80243627484e-11)
(-88.3219999999 0 2.78177683709e-10)
(-88.322 0 2.26906137114e-10)
(-88.322 0 -3.56366694331e-10)
(-88.322 0 -2.98652189786e-10)
(-88.322 0 -1.17466319983e-10)
(-88.322 0 2.58357581545e-11)
(-88.3220000001 0 -9.7839141364e-11)
(-88.3220000001 0 5.77235579898e-11)
(-88.322 0 -1.18834803517e-10)
(-88.322 0 -3.54821435178e-10)
(-88.3219999999 0 -2.4722766542e-10)
(-88.3219999993 0 6.88587148305e-11)
(-88.3220000009 0 -3.18986597816e-10)
(-88.3220000012 0 -3.62288756941e-10)
(-88.3219999995 0 -3.61942023827e-10)
(-88.322 0 3.65720376682e-10)
(-88.3219999996 0 2.9939651982e-10)
(-88.3219999993 0 -3.26106505687e-10)
(-88.3220000002 0 -2.47074576053e-10)
(-88.322 0 3.55718374507e-10)
(-88.322 0 6.9105572218e-11)
(-88.322 0 -2.52653416986e-10)
(-88.322 0 -3.92120414087e-10)
(-88.322 0 2.47860000855e-10)
(-88.3220000001 0 -2.07492849416e-10)
(-88.322 0 -1.39565158321e-12)
(-88.3219999999 0 -4.18273040074e-10)
(-88.322 0 3.96283298959e-10)
(-88.322 0 -4.35313143267e-11)
(-88.322 0 3.25716096591e-11)
(-88.3220000002 0 1.07944077071e-10)
(-88.3219999998 0 -2.56171401823e-10)
(-88.3219999997 0 -5.9809011197e-10)
(-88.3220000008 0 -6.57385465127e-10)
(-88.3220000004 0 -1.98088131254e-10)
(-88.3219999997 0 6.79137059604e-10)
(-88.3219999999 0 4.32285040622e-10)
(-88.3219999995 0 -7.16833578317e-11)
(-88.3219999996 0 -4.23125710178e-10)
(-88.3220000008 0 4.38288281625e-10)
(-88.3220000008 0 -1.56483096942e-11)
(-88.3219999997 0 -1.22059836648e-10)
(-88.3219999997 0 5.44986424786e-12)
(-88.322 0 9.1227648108e-11)
(-88.3220000003 0 5.45780981779e-11)
(-88.3220000002 0 9.08065801879e-11)
(-88.3219999999 0 -1.2839466608e-10)
(-88.322 0 7.27032559908e-11)
(-88.3220000001 0 -1.41188010377e-10)
(-88.3220000001 0 8.91740745508e-11)
(-88.3219999999 0 1.08311250443e-10)
(-88.322 0 -1.18800894972e-10)
(-88.322 0 -2.99824270141e-10)
(-88.322 0 -1.41027458712e-10)
(-88.322 0 -3.30306473588e-10)
(-88.322 0 -3.63036489545e-10)
(-88.322 0 -1.99463441945e-10)
(-88.322 0 6.62518773853e-11)
(-88.322 0 3.04242615319e-11)
(-88.322 0 5.8502327265e-11)
(-88.322 0 -2.02437350386e-10)
(-88.3220000003 0 -4.45338350869e-10)
(-88.3220000001 0 2.19431476317e-10)
(-88.3219999992 0 2.68461924454e-10)
(-88.3219999995 0 5.30450897425e-10)
(-88.3220000013 0 -2.9604643829e-10)
(-88.322000001 0 -2.08544083469e-10)
(-88.3219999995 0 2.07199121709e-10)
(-88.3219999994 0 1.74915739622e-10)
(-88.3219999999 0 1.83443247542e-10)
(-88.322 0 8.3354893438e-11)
(-88.3220000001 0 1.40134230114e-10)
(-88.3220000007 0 7.5920659617e-11)
(-88.3220000002 0 -1.72977521492e-11)
(-88.3219999992 0 4.6575847935e-11)
(-88.3220000001 0 -6.64384332389e-11)
(-88.3220000009 0 -3.3171726101e-10)
(-88.3220000002 0 3.4964985745e-10)
(-88.3219999984 0 4.89765536547e-10)
(-88.3219999985 0 2.94443803206e-10)
(-88.3220000014 0 5.3248043861e-10)
(-88.3220000011 0 -2.58693484043e-10)
(-88.3219999987 0 1.27313932778e-12)
(-88.3219999994 0 6.50568995755e-12)
(-88.3220000012 0 -2.13316540408e-11)
(-88.3220000009 0 3.29270230374e-11)
(-88.321999999 0 -3.19074749118e-11)
(-88.3219999996 0 1.5359605343e-11)
(-88.3220000005 0 -5.53429760199e-11)
(-88.3220000004 0 -1.58348897866e-10)
(-88.3219999992 0 1.49743293166e-10)
(-88.3219999992 0 1.72914608633e-10)
(-88.3220000009 0 2.5287158095e-10)
(-88.3219999998 0 -2.74668388357e-10)
(-88.3220000004 0 -2.99490794542e-10)
(-88.3220000007 0 3.51734391424e-10)
(-88.3220000001 0 2.194415858e-13)
(-88.3220000006 0 6.82021870053e-11)
(-88.3219999987 0 2.80941806594e-10)
(-88.3219999983 0 4.1335296078e-10)
(-88.3220000016 0 4.09601393009e-10)
(-88.3220000013 0 -1.2907784368e-10)
(-88.3219999988 0 -1.61699979343e-10)
(-88.3219999987 0 -1.78270721995e-10)
(-88.3220000005 0 3.24305123048e-10)
(-88.3220000004 0 2.53950145272e-10)
(-88.3219999996 0 1.97697880952e-10)
(-88.322 0 -1.11331187946e-10)
(-88.3219999999 0 -1.53272801723e-10)
(-88.3220000002 0 6.24145853981e-11)
(-88.322 0 -2.02863538072e-11)
(-88.3219999999 0 -1.48745473081e-11)
(-88.3219999999 0 -3.87655771817e-11)
(-88.3219999996 0 3.81960749057e-11)
(-88.3220000004 0 3.7095369842e-11)
(-88.3220000008 0 1.47629936387e-11)
(-88.322 0 -1.55027281675e-11)
(-88.322 0 -1.13794392808e-10)
(-88.3220000004 0 -2.29770387429e-11)
(-88.3219999998 0 -4.78541897754e-11)
(-88.3219999992 0 -4.40894079602e-11)
(-88.3219999995 0 2.57340225457e-11)
(-88.322 0 -3.68506145368e-11)
(-88.3220000004 0 -1.51285885666e-11)
(-88.322000001 0 6.48423328634e-12)
(-88.3219999992 0 -5.03738610935e-11)
(-88.3219999985 0 1.26318895174e-10)
(-88.3219999993 0 2.93957772981e-11)
(-88.3220000011 0 -2.20834305655e-10)
(-88.3220000015 0 -1.75750446682e-10)
(-88.3219999991 0 2.7433220621e-10)
(-88.3219999993 0 3.35726740638e-10)
(-88.322 0 1.20828343391e-10)
(-88.3220000001 0 -1.94887317517e-11)
(-88.3220000001 0 1.0118733977e-10)
(-88.3220000001 0 -3.9165375266e-11)
(-88.3220000002 0 1.25855603477e-10)
(-88.3220000001 0 3.52592515248e-10)
(-88.322 0 2.49120321339e-10)
(-88.322 0 -7.8934667678e-11)
(-88.3220000001 0 3.44063159113e-10)
(-88.3219999997 0 3.01418105274e-10)
(-88.3219999995 0 4.38900844596e-10)
(-88.3219999999 0 -3.85652575631e-10)
(-88.3220000007 0 -2.79830219913e-10)
(-88.3220000004 0 4.08690357025e-10)
(-88.3219999997 0 2.4905373473e-10)
(-88.322 0 -3.45735237908e-10)
(-88.322 0 -6.44128071574e-11)
(-88.322 0 2.451545606e-10)
(-88.322 0 3.92273273768e-10)
(-88.322 0 -2.94539787257e-10)
(-88.3220000004 0 1.90773981944e-10)
(-88.3219999996 0 -1.54288924791e-11)
(-88.3219999992 0 4.12956997256e-10)
(-88.3219999998 0 -4.04563913359e-10)
(-88.322000001 0 1.87512519274e-11)
(-88.3220000011 0 5.5779395408e-11)
(-88.321999999 0 -2.72366887308e-10)
(-88.3219999993 0 8.07651785542e-11)
(-88.3220000002 0 5.23344684892e-10)
(-88.3220000003 0 4.63656347353e-10)
(-88.3219999998 0 2.01738616907e-10)
(-88.3219999995 0 -3.3676910699e-10)
(-88.3220000009 0 -4.45679891634e-10)
(-88.3220000006 0 3.81386783668e-10)
(-88.3219999997 0 2.96654892039e-10)
(-88.3219999999 0 -1.88902708454e-10)
(-88.3219999999 0 -3.44933474827e-10)
(-88.322 0 8.32255627765e-11)
(-88.322 0 -1.10705302067e-10)
(-88.322 0 -4.79492010063e-12)
(-88.322 0 4.76105645512e-11)
(-88.322 0 -6.61231410278e-11)
(-88.322 0 1.26073770734e-10)
(-88.322 0 -3.09272399597e-11)
(-88.322 0 1.0710062247e-10)
(-88.322 0 -1.06400734445e-10)
(-88.322 0 -7.03885022247e-11)
(-88.3220000001 0 -1.04807247088e-10)
(-88.3220000002 0 -1.29409007836e-11)
(-88.322 0 2.08891527565e-10)
(-88.3219999999 0 1.08732735167e-10)
(-88.322 0 -7.60763329267e-11)
(-88.3219999999 0 -1.69966833761e-10)
(-88.322 0 4.40622641872e-11)
(-88.3220000001 0 5.23816007503e-11)
(-88.3219999999 0 -9.89592124962e-11)
(-88.322 0 2.03711171244e-10)
(-88.322 0 4.42029920398e-10)
(-88.322 0 -2.12021656949e-10)
(-88.3219999999 0 -2.78244268437e-10)
(-88.3219999999 0 -5.43503868271e-10)
(-88.3220000002 0 2.50373530311e-10)
(-88.322 0 1.98452762461e-10)
(-88.3219999999 0 -2.03718173229e-10)
(-88.3220000001 0 -1.72263946032e-10)
(-88.322 0 -1.89696754335e-10)
(-88.322 0 -1.1930394096e-10)
(-88.322 0 -1.20612251305e-10)
(-88.322 0 -5.94372551919e-11)
(-88.322 0 4.54749069752e-11)
(-88.322 0 9.24307650041e-11)
(-88.3219999999 0 -1.1442052155e-10)
(-88.3220000001 0 1.94800409869e-10)
(-88.3220000001 0 -2.33632603864e-10)
(-88.3219999998 0 -3.64281045634e-10)
(-88.322 0 -3.30305175735e-10)
(-88.3219999999 0 -1.01382040299e-11)
(-88.3220000001 0 -1.4428683172e-10)
(-88.3220000002 0 -3.32658733527e-10)
(-88.322 0 2.15959492926e-10)
(-88.322 0 2.32503628241e-10)
(-88.322 0 -2.61378118011e-10)
(-88.3220000001 0 1.96112743999e-12)
(-88.322 0 -3.78469314725e-10)
(-88.3219999999 0 -3.4786806906e-10)
(-88.322 0 -1.68894624615e-11)
(-88.322 0 -4.63394340483e-10)
(-88.322 0 -2.56492630487e-10)
(-88.3219999999 0 -2.92563246115e-10)
(-88.3220000003 0 1.91719786405e-10)
(-88.3220000004 0 2.78264514764e-10)
(-88.3219999991 0 -3.40810762027e-10)
(-88.3219999993 0 -2.52946142299e-11)
(-88.3220000012 0 -2.97354980863e-10)
(-88.3220000003 0 2.35201561879e-10)
(-88.3219999996 0 -3.34029641512e-10)
(-88.3220000002 0 -6.28287158917e-10)
(-88.3219999999 0 -2.08308640369e-10)
(-88.3219999999 0 1.81537222322e-11)
(-88.322 0 1.40964901815e-10)
(-88.322 0 3.10837287908e-11)
(-88.322 0 2.95417502601e-12)
(-88.322 0 4.76537201213e-12)
(-88.3219999999 0 6.49777750489e-11)
(-88.322 0 -2.07713487608e-10)
(-88.3220000001 0 -6.83076959179e-11)
(-88.322 0 2.33232864214e-11)
(-88.322 0 -5.35085586957e-11)
(-88.322 0 -8.07874637319e-12)
(-88.3219999999 0 1.51142785048e-11)
(-88.3220000004 0 -3.62027586011e-11)
(-88.3220000007 0 4.8921102031e-11)
(-88.3219999994 0 -5.72888703261e-11)
(-88.3219999998 0 5.32449961052e-10)
(-88.3220000009 0 -3.77884404204e-10)
(-88.3220000003 0 -4.19869406362e-10)