/*--------------------------------*- C++ -*----------------------------------*\
  =========                 |
  \\      /  F ield         | OpenFOAM: The Open Source CFD Toolbox
   \\    /   O peration     | Website:  https://openfoam.org
    \\  /    A nd           | Version:  6
     \\/     M anipulation  |
\*---------------------------------------------------------------------------*/
FoamFile
{
    version     2.0;
    format      ascii;
    class       volVectorField;
    location    "4.82e-05";
    object      U;
}
// * * * * * * * * * * * * * * * * * * * * * * * * * * * * * * * * * * * * * //

dimensions      [0 1 -1 0 0 0 0];

internalField   nonuniform List<vector> 
8192
(
(-88.322 0 -2.82799407985e-10)
(-88.3219999996 0 -8.25665685332e-11)
(-88.3220000002 0 -6.99016673938e-11)
(-88.3220000003 0 -2.77469145813e-10)
(-88.3219999995 0 -6.38342266898e-11)
(-88.3219999997 0 6.08829855462e-12)
(-88.3220000003 0 -1.94201721583e-12)
(-88.322 0 1.11982157816e-10)
(-88.322 0 -2.6657082289e-10)
(-88.322 0 -5.79473425397e-10)
(-88.3219999999 0 -7.22380888387e-10)
(-88.322 0 3.68671772894e-10)
(-88.3220000002 0 6.64679430589e-10)
(-88.322 0 -7.59388301046e-10)
(-88.3219999998 0 -6.25691982853e-10)
(-88.3219999999 0 3.63522083733e-10)
(-88.3219999998 0 3.06525986614e-10)
(-88.3219999999 0 6.66412673582e-10)
(-88.3220000002 0 -4.24173457352e-10)
(-88.322 0 -5.76083903568e-10)
(-88.3219999996 0 2.62038585124e-10)
(-88.3220000004 0 3.8658908633e-10)
(-88.3220000003 0 -6.14091359023e-10)
(-88.3219999998 0 -5.72352644607e-10)
(-88.322 0 1.73811067325e-10)
(-88.3219999999 0 1.83793547516e-10)
(-88.3219999999 0 2.29726316153e-10)
(-88.3219999999 0 1.93228017482e-10)
(-88.3220000002 0 3.12287147057e-10)
(-88.3220000002 0 -1.60907168365e-10)
(-88.322 0 2.1827201824e-10)
(-88.3219999996 0 -5.65754196362e-11)
(-88.3219999989 0 1.26304230562e-10)
(-88.3220000019 0 5.48630841196e-10)
(-88.3220000027 0 -8.53630133997e-10)
(-88.3219999987 0 -6.34676657798e-10)
(-88.3219999995 0 -1.27925970882e-11)
(-88.3219999996 0 -5.66464116608e-10)
(-88.3219999986 0 1.69977903191e-10)
(-88.3220000006 0 1.76868248336e-10)
(-88.3220000001 0 -5.8215716998e-11)
(-88.3219999998 0 6.3998117316e-11)
(-88.3220000002 0 -1.40778724129e-11)
(-88.322 0 -1.51697235135e-11)
(-88.322 0 -5.83180678941e-11)
(-88.322 0 -3.77488351572e-11)
(-88.322 0 -1.96466158235e-11)
(-88.322 0 -1.93090867055e-11)
(-88.3220000001 0 2.885463582e-11)
(-88.3219999998 0 -9.55124315107e-11)
(-88.3219999999 0 1.28484480606e-10)
(-88.3220000006 0 -6.21409468797e-11)
(-88.3219999994 0 -2.11437135606e-10)
(-88.3219999993 0 3.46637522492e-10)
(-88.3220000012 0 1.90327345626e-10)
(-88.3220000006 0 -2.08314761061e-10)
(-88.322 0 -3.12387065502e-11)
(-88.3219999998 0 -1.74700505118e-10)
(-88.3220000002 0 -4.26804222685e-11)
(-88.3219999992 0 -3.08749438402e-10)
(-88.3219999984 0 3.43108522518e-10)
(-88.3219999998 0 3.95220646948e-10)
(-88.3220000009 0 3.61844614612e-10)
(-88.3220000014 0 -2.99206079725e-11)
(-88.3220000001 0 -3.34304034413e-10)
(-88.3219999999 0 -8.97248214347e-11)
(-88.3220000002 0 1.2970763027e-10)
(-88.3219999997 0 1.46453126911e-11)
(-88.322 0 2.55450065595e-10)
(-88.3220000002 0 -1.19851995786e-10)
(-88.3219999995 0 5.16258573687e-11)
(-88.3220000006 0 4.59927396162e-12)
(-88.3220000013 0 -7.92402737496e-12)
(-88.3220000008 0 -6.28096582186e-11)
(-88.3219999982 0 6.99228200347e-11)
(-88.3219999972 0 -2.46111487936e-10)
(-88.322000002 0 -2.49664319444e-11)
(-88.3220000025 0 -1.85542959875e-10)
(-88.3219999979 0 -3.15378475987e-10)
(-88.3219999983 0 3.09307648054e-10)
(-88.3219999996 0 2.33976097383e-10)
(-88.3220000017 0 1.50165480026e-10)
(-88.3220000023 0 -3.41505760212e-10)
(-88.3219999988 0 -1.9481685748e-10)
(-88.3219999984 0 -5.95564077846e-11)
(-88.3220000014 0 -1.66481822727e-11)
(-88.3220000016 0 2.08153857842e-10)
(-88.3219999987 0 -6.95203844761e-11)
(-88.3219999985 0 4.46041600908e-10)
(-88.322 0 -1.94563188752e-10)
(-88.3220000001 0 3.14017880628e-10)
(-88.3219999999 0 2.98911411726e-10)
(-88.3220000005 0 -7.33503076025e-11)
(-88.322 0 1.10943436047e-11)
(-88.3219999998 0 7.80816491668e-11)
(-88.3220000005 0 2.33135584098e-11)
(-88.3219999998 0 -2.35382306519e-10)
(-88.3220000003 0 -4.66261468411e-10)
(-88.322 0 5.68775852743e-10)
(-88.3219999995 0 6.46898610697e-10)
(-88.3220000002 0 5.94957608285e-12)
(-88.322 0 3.07966037865e-10)
(-88.322 0 -1.68985270658e-10)
(-88.322 0 -2.23736154827e-10)
(-88.322 0 1.58511762575e-10)
(-88.322 0 -9.00874831392e-11)
(-88.322 0 7.25614308305e-11)
(-88.322 0 -2.03812181098e-10)
(-88.322 0 -3.99183857054e-10)
(-88.322 0 -3.41599620733e-10)
(-88.322 0 -3.31628958968e-10)
(-88.322 0 -4.04787581975e-10)
(-88.322 0 -3.77291272604e-10)
(-88.322 0 -8.4501036884e-11)
(-88.322 0 3.08898013467e-10)
(-88.3220000001 0 -9.32180337866e-11)
(-88.3219999998 0 6.03277988835e-11)
(-88.322 0 -1.07582775604e-10)
(-88.3220000001 0 -2.90258561456e-10)
(-88.3219999999 0 4.15993897031e-10)
(-88.322 0 -1.80513824206e-10)
(-88.3220000001 0 -1.63168697671e-10)
(-88.322 0 -3.84092491623e-10)
(-88.3219999999 0 9.02120044549e-10)
(-88.322 0 3.41505464853e-10)
(-88.3220000001 0 -8.11028298169e-10)
(-88.3220000001 0 -1.10402926613e-09)
(-88.322 0 -4.49784472491e-10)
(-88.3219999993 0 7.72683696869e-11)
(-88.3219999988 0 1.06219788724e-10)
(-88.322 0 -3.23378147277e-11)
(-88.322 0 2.01271551813e-10)
(-88.3219999999 0 -1.62641613233e-10)
(-88.322 0 1.48867502912e-10)
(-88.322 0 -4.51367003732e-11)
(-88.322 0 -1.07203191949e-10)
(-88.3220000002 0 2.36845011235e-10)
(-88.3219999998 0 5.399539586e-10)
(-88.3220000003 0 6.81401981971e-10)
(-88.3220000002 0 -2.584369057e-10)
(-88.322 0 -5.67710763582e-10)
(-88.3220000005 0 5.42950841932e-10)
(-88.3219999988 0 5.61947329429e-10)
(-88.3219999987 0 -3.84388620352e-10)
(-88.3220000001 0 -3.12809188002e-10)
(-88.322000001 0 -5.98197060443e-10)
(-88.3220000009 0 4.57049822653e-10)
(-88.3219999994 0 5.33128533733e-10)
(-88.3219999993 0 -2.22263541155e-10)
(-88.3219999998 0 -2.14198954668e-10)
(-88.3220000004 0 5.82072293463e-10)
(-88.3219999994 0 5.68807533028e-10)
(-88.3220000003 0 -9.16657115807e-11)
(-88.322 0 -1.69564216591e-10)
(-88.3219999989 0 -9.38968719128e-11)
(-88.3220000008 0 1.00511912494e-10)
(-88.3220000008 0 -8.61795340868e-11)
(-88.3219999999 0 5.71707675506e-11)
(-88.3219999999 0 8.68919111528e-11)
(-88.3220000004 0 -5.32417573084e-12)
(-88.322 0 -4.8132385145e-10)
(-88.322 0 4.55815571753e-10)
(-88.3220000002 0 6.44330448185e-10)
(-88.322 0 -4.23060910903e-10)
(-88.3220000003 0 -7.13987667771e-10)
(-88.322 0 8.45010488147e-10)
(-88.3219999997 0 4.20901871849e-10)
(-88.3219999999 0 -3.65728499244e-10)
(-88.322 0 -4.54611920642e-10)
(-88.322 0 1.99243375191e-10)
(-88.3220000004 0 -2.87104009714e-10)
(-88.3220000011 0 -6.69727399384e-11)
(-88.3220000003 0 -3.57387453459e-10)
(-88.3219999998 0 6.18712385212e-11)
(-88.3220000001 0 -6.19961718219e-10)
(-88.3219999999 0 -5.99039262921e-10)
(-88.3219999994 0 5.19344063085e-10)
(-88.3219999985 0 2.39374341405e-11)
(-88.322 0 -4.15046133511e-10)
(-88.3220000011 0 1.81849040358e-10)
(-88.3219999994 0 -4.53960085147e-10)
(-88.3219999999 0 4.20980275003e-10)
(-88.322 0 8.04933204073e-11)
(-88.3220000004 0 -3.5293138569e-10)
(-88.3220000012 0 -3.85101631712e-10)
(-88.3220000003 0 -4.09693897334e-10)
(-88.3219999981 0 -1.68632779118e-10)
(-88.3219999978 0 -1.98787553509e-10)
(-88.3220000019 0 -1.61687529539e-10)
(-88.3220000027 0 8.65525150946e-11)
(-88.3220000001 0 5.93626127262e-11)
(-88.3219999999 0 8.20326843356e-11)
(-88.322 0 6.4524679014e-10)
(-88.322 0 1.93001739895e-10)
(-88.322 0 -5.86386228385e-11)
(-88.322 0 1.65663272723e-10)
(-88.322 0 -2.01288452779e-10)
(-88.322 0 4.08967253489e-11)
(-88.322 0 1.47170257844e-11)
(-88.322 0 3.86981314848e-11)
(-88.322 0 3.16173292132e-11)
(-88.322 0 9.77864282154e-11)
(-88.3219999998 0 -3.56935853349e-11)
(-88.3219999997 0 1.7074658727e-10)
(-88.3220000005 0 -1.61223408301e-11)
(-88.3220000002 0 4.1001888801e-10)
(-88.3219999998 0 3.54768668113e-10)
(-88.322 0 -2.9901819939e-10)
(-88.322 0 -2.23965727716e-10)
(-88.322 0 -2.98844947346e-10)
(-88.322 0 5.15165797349e-10)
(-88.322 0 4.56776020785e-10)
(-88.322 0 -5.18642490854e-10)
(-88.3219999999 0 -5.07274158415e-10)
(-88.322 0 3.26952280013e-10)
(-88.322 0 5.21497467167e-10)
(-88.322 0 -2.12750864223e-10)
(-88.322 0 5.85748031489e-10)
(-88.3219999995 0 -1.96026968879e-10)
(-88.3219999999 0 4.88908808811e-11)
(-88.3220000006 0 -1.03215998251e-10)
(-88.3219999997 0 -2.80290865188e-10)
(-88.3219999999 0 1.01124732532e-10)
(-88.3220000015 0 -9.18844592146e-11)
(-88.3219999989 0 6.6960360502e-12)
(-88.3219999982 0 -9.08226502955e-11)
(-88.3220000017 0 4.4974635096e-11)
(-88.3220000022 0 9.66301285305e-11)
(-88.3219999977 0 -7.74864844468e-11)
(-88.3219999978 0 3.72777084982e-10)
(-88.3220000023 0 -2.75768667359e-11)
(-88.3220000017 0 4.12808533223e-11)
(-88.3219999988 0 -7.86954269985e-11)
(-88.3219999998 0 -2.04561496474e-12)
(-88.3220000005 0 -9.22236569205e-11)
(-88.3220000002 0 2.05633456644e-10)
(-88.3219999997 0 4.29502059782e-10)
(-88.3220000005 0 3.39570215509e-10)
(-88.3220000013 0 3.56915895692e-10)
(-88.3219999977 0 2.7816033287e-10)
(-88.3219999989 0 5.31284245846e-10)
(-88.3220000018 0 1.98013732219e-10)
(-88.3219999998 0 -3.71346452553e-10)
(-88.3220000002 0 1.09923006815e-10)
(-88.3219999992 0 -2.08234110072e-10)
(-88.321999999 0 2.39991181276e-10)
(-88.3220000015 0 5.83056837688e-10)
(-88.3220000008 0 -5.49965599772e-10)
(-88.3220000001 0 -1.77603969525e-10)
(-88.3219999997 0 4.38886475536e-10)
(-88.3219999996 0 5.08645765898e-11)
(-88.3219999998 0 -4.82386410497e-10)
(-88.3219999995 0 -1.07994323811e-09)
(-88.3219999998 0 8.46686104538e-10)
(-88.3220000001 0 9.96832607102e-10)
(-88.322 0 7.72590361613e-10)
(-88.3220000005 0 -3.16685303946e-10)
(-88.3220000001 0 -1.30224099381e-10)
(-88.322 0 2.47648994699e-10)
(-88.3220000004 0 -4.05012596808e-11)
(-88.322 0 -6.06445801479e-11)
(-88.3219999996 0 -9.75308354245e-12)
(-88.322 0 -1.87187278023e-12)
(-88.322 0 3.63475244183e-11)
(-88.322 0 1.78230325035e-11)
(-88.322 0 -7.86181044317e-12)
(-88.3220000001 0 7.0224860668e-11)
(-88.3220000002 0 -2.75734129883e-10)
(-88.3219999996 0 -2.89773194695e-10)
(-88.3219999999 0 4.38997666375e-11)
(-88.3220000003 0 -2.7233478981e-11)
(-88.322 0 3.64169057435e-11)
(-88.3220000002 0 1.62910993576e-10)
(-88.3219999995 0 1.57172768603e-10)
(-88.3219999994 0 -2.56692519697e-11)
(-88.3220000015 0 -2.09318911481e-12)
(-88.3220000012 0 3.21952946758e-11)
(-88.3219999981 0 3.1854107803e-11)
(-88.3219999984 0 8.42148013027e-11)
(-88.3220000005 0 -1.27338750801e-10)
(-88.3220000001 0 1.37641537997e-10)
(-88.3220000001 0 4.3029972211e-12)
(-88.3219999999 0 2.64286651599e-10)
(-88.3220000005 0 2.88223343235e-10)
(-88.3220000013 0 3.74616765892e-10)
(-88.3219999994 0 -3.25140727303e-11)
(-88.3219999995 0 1.47051124916e-10)
(-88.3220000004 0 4.05655930349e-10)
(-88.322 0 -3.4388597013e-11)
(-88.322 0 -5.48445599858e-10)
(-88.3219999998 0 -7.68388618189e-10)
(-88.3220000002 0 2.12435244656e-10)
(-88.3219999997 0 8.90963490497e-10)
(-88.3219999999 0 -1.09914573014e-09)
(-88.3220000003 0 -2.86091953714e-10)
(-88.322 0 1.55246165183e-10)
(-88.322 0 3.97004587104e-10)
(-88.322 0 -1.67481996507e-10)
(-88.322 0 2.45581651787e-10)
(-88.322 0 7.49905869922e-11)
(-88.322 0 3.27856359081e-10)
(-88.322 0 -4.72642096986e-11)
(-88.3220000002 0 6.16657847026e-10)
(-88.3219999997 0 5.12950438391e-10)
(-88.3219999996 0 -4.49125378625e-10)
(-88.3220000004 0 -1.36215009516e-10)
(-88.3220000001 0 3.10494075828e-10)
(-88.3220000007 0 2.57872101216e-12)
(-88.3219999993 0 3.64129769478e-10)
(-88.3219999984 0 -4.35645877304e-10)
(-88.3220000015 0 -7.7737145351e-11)
(-88.3220000019 0 -2.43754476672e-10)
(-88.3219999992 0 1.80250119767e-10)
(-88.3219999999 0 1.13917034727e-10)
(-88.3219999998 0 -3.00580396207e-10)
(-88.3220000001 0 7.9901500651e-10)
(-88.3219999992 0 6.776454155e-10)
(-88.3219999985 0 4.05366011137e-10)
(-88.3220000002 0 1.65818545282e-10)
(-88.3220000004 0 -2.32202985245e-11)
(-88.3220000002 0 -1.17730840466e-10)
(-88.321999999 0 -2.29245528809e-10)
(-88.322 0 4.29149609737e-10)
(-88.3220000005 0 6.38047063311e-10)
(-88.3219999999 0 6.87531845648e-13)
(-88.3219999999 0 4.34625078939e-10)
(-88.322 0 3.25462620842e-10)
(-88.322 0 -4.47811838855e-10)
(-88.322 0 2.05026001149e-11)
(-88.3219999998 0 9.50742668485e-11)
(-88.3220000003 0 -5.13470190664e-11)
(-88.3220000004 0 1.9961374196e-10)
(-88.3219999998 0 1.9098921513e-10)
(-88.3219999998 0 -5.51279479127e-10)
(-88.3219999998 0 5.09418345891e-10)
(-88.3219999997 0 4.15365971264e-10)
(-88.3219999997 0 5.49485217319e-10)
(-88.3220000004 0 1.18107310936e-10)
(-88.3220000003 0 -7.23953621121e-10)
(-88.322 0 -2.55958196289e-10)
(-88.3219999998 0 9.17429948252e-10)
(-88.3219999998 0 1.11071879796e-09)
(-88.3220000004 0 -6.51383940417e-10)
(-88.3219999999 0 -6.34688685802e-10)
(-88.3219999998 0 -4.65955834017e-10)
(-88.3219999998 0 -9.24587513041e-11)
(-88.321999999 0 1.18004104151e-10)
(-88.3219999996 0 -4.75544695154e-10)
(-88.3220000013 0 5.44892848895e-10)
(-88.3220000001 0 7.57023468701e-10)
(-88.321999999 0 -1.32082809211e-10)
(-88.322000002 0 -3.66555097286e-10)
(-88.3220000007 0 9.95152593695e-11)
(-88.3219999995 0 1.78140179952e-10)
(-88.3220000002 0 1.22268055241e-10)
(-88.3219999989 0 -1.31279376037e-10)
(-88.3220000003 0 -6.55218803718e-12)
(-88.322 0 -5.93550961421e-11)
(-88.3219999999 0 4.34203968337e-12)
(-88.3220000003 0 6.32616618098e-11)
(-88.3219999996 0 4.92576531256e-11)
(-88.322 0 -2.57124867406e-11)
(-88.322 0 1.9107658008e-11)
(-88.322 0 1.07227196336e-11)
(-88.322 0 9.01227012043e-12)
(-88.322 0 1.0506332842e-11)
(-88.3220000002 0 -8.52616537275e-11)
(-88.3219999998 0 3.0645053842e-10)
(-88.3220000002 0 -2.22339626749e-10)
(-88.3220000002 0 -7.73351142042e-11)
(-88.3219999995 0 -2.07732689951e-11)
(-88.3220000002 0 1.19362062689e-10)
(-88.3220000001 0 2.88817938014e-10)
(-88.3219999998 0 -4.28554151639e-10)
(-88.3220000012 0 -4.8142392318e-10)
(-88.3220000002 0 3.03370106535e-10)
(-88.3219999994 0 3.66702943684e-10)
(-88.3220000007 0 5.04861453165e-11)
(-88.3219999982 0 4.1443806414e-10)
(-88.3219999978 0 -9.28395278954e-11)
(-88.3220000002 0 4.89946781772e-10)
(-88.3220000007 0 -2.5357906037e-10)
(-88.3220000009 0 -7.85354494071e-11)
(-88.3220000009 0 -2.5888985875e-10)
(-88.3220000004 0 5.00769122387e-10)
(-88.321999999 0 2.14807457816e-11)
(-88.3219999983 0 -3.04025809805e-10)
(-88.3220000013 0 5.29142862872e-11)
(-88.3220000004 0 3.22024167265e-11)
(-88.3219999989 0 5.30095238835e-11)
(-88.3220000019 0 -9.36674366851e-11)
(-88.3220000006 0 6.24646052654e-11)
(-88.321999999 0 -1.80697643495e-10)
(-88.3220000002 0 -1.70820222065e-10)
(-88.3219999998 0 4.08143685866e-10)
(-88.3219999997 0 -3.80811300054e-10)
(-88.3220000012 0 -3.24932900799e-10)
(-88.3219999993 0 -6.01232308979e-11)
(-88.3219999983 0 -1.21913584128e-10)
(-88.3219999999 0 1.3350887945e-11)
(-88.3220000008 0 -2.6696477758e-10)
(-88.3220000021 0 -1.31942584325e-10)
(-88.322 0 4.02556226114e-11)
(-88.3219999982 0 -3.05820965801e-12)
(-88.3219999985 0 -1.96677709202e-12)
(-88.3220000012 0 -3.65348888301e-11)
(-88.3220000019 0 2.19769855018e-12)
(-88.322 0 -2.40500023423e-11)
(-88.321999999 0 -7.77460254727e-11)
(-88.3219999989 0 4.8543413355e-11)
(-88.3220000007 0 -3.39569545934e-10)
(-88.3219999996 0 -3.61902008422e-10)
(-88.3219999989 0 -5.98879532047e-10)
(-88.3220000008 0 3.21284454942e-10)
(-88.3220000018 0 -4.62743807449e-10)
(-88.322 0 -3.80188769223e-10)
(-88.3219999989 0 8.28986029636e-10)
(-88.3219999999 0 2.04619095599e-10)
(-88.3220000005 0 -1.20627215798e-10)
(-88.3220000005 0 -4.75558211521e-10)
(-88.3219999996 0 -1.42317717496e-10)
(-88.3219999999 0 6.34582791571e-10)
(-88.322 0 -1.8799104928e-10)
(-88.3219999999 0 -8.11254679359e-11)
(-88.3220000001 0 5.36058131242e-11)
(-88.322 0 9.0965395706e-11)
(-88.322 0 -2.09543910599e-10)
(-88.322 0 6.85206211425e-11)
(-88.322 0 3.83863620966e-11)
(-88.3220000001 0 1.13224577384e-11)
(-88.3219999996 0 -9.88318041955e-12)
(-88.322 0 -4.32309617671e-11)
(-88.3220000004 0 3.27397940282e-11)
(-88.3219999999 0 -4.13016339209e-11)
(-88.3219999998 0 1.25630859449e-10)
(-88.3220000002 0 -4.61341613911e-11)
(-88.3220000003 0 6.3256123378e-11)
(-88.3219999998 0 -6.78584558978e-11)
(-88.322 0 4.77583750945e-11)
(-88.3220000002 0 3.21873379555e-10)
(-88.3219999998 0 1.04928904303e-11)
(-88.3219999998 0 9.92701055778e-11)
(-88.3220000002 0 4.82288938616e-10)
(-88.3219999999 0 -5.25591854548e-10)
(-88.3219999997 0 -4.95005617787e-10)
(-88.3219999997 0 4.23537426805e-11)
(-88.3220000002 0 2.64664968923e-10)
(-88.3220000005 0 -1.0055792444e-10)
(-88.322 0 9.7944403149e-11)
(-88.3220000005 0 2.21344198936e-10)
(-88.3219999998 0 -4.01101282541e-10)
(-88.3219999999 0 -6.66545884721e-10)
(-88.3219999999 0 1.89316556051e-10)
(-88.3220000002 0 -4.41297060827e-10)
(-88.3219999999 0 -3.56428855276e-10)
(-88.3220000001 0 4.42091546789e-10)
(-88.3220000005 0 -3.74318246773e-11)
(-88.3219999986 0 -1.21651232307e-10)
(-88.3220000008 0 8.46296318162e-11)
(-88.3220000019 0 -1.86419747548e-10)
(-88.3219999992 0 -1.05695754752e-10)
(-88.3219999993 0 3.9275811764e-10)
(-88.3219999996 0 -5.07347640401e-10)
(-88.322 0 -3.61276107579e-10)
(-88.322 0 -5.33846672239e-10)
(-88.3219999998 0 1.07091638374e-11)
(-88.3220000001 0 4.73575095777e-10)
(-88.322 0 2.6003065276e-11)
(-88.3219999999 0 -3.87664028277e-10)
(-88.3219999998 0 -7.30409294787e-10)
(-88.3220000004 0 2.12425657786e-10)
(-88.322 0 1.95151688148e-10)
(-88.3219999996 0 2.48732488282e-10)
(-88.3220000003 0 -2.73826758259e-10)
(-88.3219999998 0 -3.02216027587e-10)
(-88.3220000002 0 7.10214200146e-11)
(-88.322 0 -5.14710494506e-10)
(-88.322 0 -4.90683574609e-10)
(-88.3220000003 0 -9.38161464938e-11)
(-88.3219999994 0 4.19248214595e-10)
(-88.3219999997 0 -8.44295745533e-11)
(-88.3220000014 0 -9.94632441293e-11)
(-88.3220000016 0 -1.18250168787e-10)
(-88.321999999 0 -5.34404681611e-11)
(-88.321999998 0 2.36148705121e-10)
(-88.3220000001 0 -5.34128870391e-11)
(-88.3220000013 0 9.43243045697e-11)
(-88.3219999999 0 -3.68598357528e-11)
(-88.3219999992 0 -2.55246910914e-11)
(-88.3220000006 0 4.45226865513e-11)
(-88.322 0 -1.07272106939e-11)
(-88.3219999995 0 -1.28929641796e-11)
(-88.3220000001 0 -4.55428915541e-11)
(-88.322 0 -2.33443950352e-11)
(-88.3220000002 0 4.87895405653e-11)
(-88.3219999998 0 -2.01136919462e-10)
(-88.3220000001 0 5.76019676772e-11)
(-88.322 0 1.25276411486e-10)
(-88.3219999995 0 -1.71414986779e-10)
(-88.3220000002 0 -2.05601475729e-10)
(-88.322 0 1.26522917035e-10)
(-88.3219999998 0 6.07228054621e-10)
(-88.3220000005 0 5.96899515789e-10)
(-88.3220000003 0 -2.8160353759e-10)
(-88.3219999999 0 -3.72650057301e-10)
(-88.3219999998 0 -2.48144400737e-10)
(-88.3219999995 0 -4.72643184159e-10)
(-88.3219999998 0 1.7458316677e-10)
(-88.3219999991 0 -4.45037365333e-10)
(-88.3219999993 0 3.56459300654e-10)
(-88.3220000013 0 -1.91397304584e-10)
(-88.3220000004 0 1.51793496143e-10)
(-88.3220000003 0 -3.05766953531e-10)
(-88.3220000001 0 2.49966614693e-11)
(-88.322 0 -4.97004035076e-11)
(-88.322 0 4.89876602239e-12)
(-88.322 0 -7.73848543271e-11)
(-88.322 0 9.30970014573e-11)
(-88.322 0 4.41089142303e-11)
(-88.322 0 -9.90933694785e-11)
(-88.3220000001 0 1.75813538038e-10)
(-88.322 0 1.61474499587e-10)
(-88.322 0 -4.81796444912e-10)
(-88.322 0 5.66235794336e-10)
(-88.322 0 5.40413518489e-10)
(-88.322 0 7.18208455888e-11)
(-88.322 0 1.21852554583e-10)
(-88.322 0 -4.20059779084e-11)
(-88.322 0 9.25996345731e-11)
(-88.322 0 -1.34884236906e-11)
(-88.322 0 1.07645433562e-13)
(-88.322 0 1.46342844747e-11)
(-88.322 0 -2.62628240291e-11)
(-88.322 0 1.48842239439e-11)
(-88.322 0 -1.83816479879e-11)
(-88.322 0 1.77454732878e-10)
(-88.322 0 -7.12484260856e-11)
(-88.322 0 -4.53583470754e-11)
(-88.322 0 9.27951732999e-11)
(-88.322 0 -2.54362487537e-11)
(-88.322 0 4.7503326549e-11)
(-88.322 0 -2.11749406802e-10)
(-88.322 0 5.04300555689e-11)
(-88.322 0 -1.01257525702e-10)
(-88.322 0 -1.85814050882e-11)
(-88.322 0 1.96151187547e-10)
(-88.3220000004 0 -1.84103833118e-10)
(-88.3219999999 0 1.72874304356e-10)
(-88.3219999996 0 -2.06773019273e-10)
(-88.3220000001 0 -7.45298449779e-10)
(-88.322 0 1.80809712146e-10)
(-88.322 0 3.22492221298e-10)
(-88.322 0 -3.52041022002e-11)
(-88.322 0 -9.03171365732e-11)
(-88.322 0 2.1421872271e-10)
(-88.322 0 -9.87089202648e-11)
(-88.322 0 -3.57467427058e-11)
(-88.322 0 -2.8618441278e-11)
(-88.322 0 -6.65591927867e-11)
(-88.322 0 1.56816111288e-10)
(-88.3219999998 0 -1.29147993009e-11)
(-88.3220000003 0 2.14490360298e-10)
(-88.3220000004 0 -5.79659155661e-11)
(-88.3219999995 0 -8.24188183989e-11)
(-88.3219999987 0 -1.84664661249e-10)
(-88.3219999989 0 7.02769533541e-11)
(-88.3220000019 0 1.36157997731e-10)
(-88.3220000022 0 -2.41235853855e-10)
(-88.3219999996 0 -1.08744344702e-10)
(-88.322 0 -3.90209142224e-11)
(-88.3219999993 0 -1.21267476291e-10)
(-88.3219999998 0 5.97676393001e-11)
(-88.3219999993 0 5.97152656463e-11)
(-88.3219999992 0 -1.03669138001e-09)
(-88.3220000006 0 -8.95728707398e-10)
(-88.322 0 -2.4066656174e-10)
(-88.3219999996 0 1.50275711204e-10)
(-88.3220000001 0 1.24241694493e-10)
(-88.3219999999 0 -1.73688635708e-10)
(-88.322 0 -5.6841298234e-11)
(-88.3219999997 0 8.08572032766e-11)
(-88.3219999999 0 6.21523302105e-11)
(-88.3220000003 0 -1.4203651788e-10)
(-88.322 0 -1.58933493169e-10)
(-88.322 0 -3.38817228646e-11)
(-88.322 0 -7.8285140615e-11)
(-88.322 0 1.48466581145e-11)
(-88.3219999999 0 -3.26182317559e-11)
(-88.3220000002 0 -1.34504901379e-11)
(-88.3220000001 0 -2.33026741587e-11)
(-88.3219999998 0 -3.39234200291e-11)
(-88.322 0 -4.365452759e-11)
(-88.322 0 -4.06196258282e-11)
(-88.322 0 -4.08059719439e-12)
(-88.322 0 5.28925178792e-11)
(-88.322 0 -1.71370864316e-10)
(-88.3219999998 0 -7.36828191045e-11)
(-88.3219999998 0 5.28161596168e-10)
(-88.322 0 3.64100451453e-10)
(-88.3220000001 0 -4.76294538591e-10)
(-88.3220000001 0 -3.55626837479e-10)
(-88.322 0 -1.08055439446e-10)
(-88.3219999998 0 7.37481362784e-11)
(-88.3220000002 0 -1.78119687475e-10)
(-88.3220000003 0 1.3718518016e-10)
(-88.322 0 -1.53012488938e-10)
(-88.3220000001 0 -4.08463095298e-10)
(-88.3219999996 0 -3.23923353189e-10)
(-88.321999999 0 2.81468428084e-10)
(-88.3220000016 0 -4.36422004103e-10)
(-88.3220000016 0 -4.727509521e-10)
(-88.3219999991 0 -4.17423983051e-10)
(-88.3219999999 0 4.55261809313e-10)
(-88.3219999994 0 3.37963446459e-10)
(-88.3219999991 0 -3.77511671512e-10)
(-88.3220000003 0 -2.43716587909e-10)
(-88.322 0 5.4045004918e-10)
(-88.322 0 1.2375862064e-10)
(-88.322 0 -3.63962533116e-10)
(-88.322 0 -5.78974721048e-10)
(-88.322 0 2.39770279712e-10)
(-88.3220000002 0 -2.41974201518e-10)
(-88.3219999999 0 -9.66756980821e-11)
(-88.3219999996 0 -5.18961417767e-10)
(-88.322 0 4.23596398401e-10)
(-88.3220000002 0 -1.35710561606e-10)
(-88.322 0 6.86213064631e-11)
(-88.3220000006 0 3.07313710346e-10)
(-88.3219999998 0 -4.21061267933e-10)
(-88.3219999992 0 -9.79349932312e-10)
(-88.3220000011 0 -1.1762292648e-09)
(-88.3220000008 0 -4.39024043554e-10)
(-88.3219999995 0 1.02992950597e-09)
(-88.3219999998 0 5.91782707279e-10)
(-88.3219999993 0 -7.65503360223e-11)
(-88.3219999994 0 -7.29833064342e-10)
(-88.3220000013 0 7.74068749379e-10)
(-88.3220000011 0 -3.623437725e-11)
(-88.3219999996 0 -1.86597897707e-10)
(-88.3219999994 0 -3.58232388493e-11)
(-88.322 0 1.08685602688e-10)
(-88.3220000007 0 5.08887647453e-11)
(-88.3220000004 0 2.69197431765e-10)
(-88.3219999995 0 -2.34677277238e-10)
(-88.3219999998 0 1.95722218789e-10)
(-88.3220000005 0 -2.73262949294e-10)
(-88.3220000004 0 2.41382639892e-10)
(-88.3219999998 0 2.78709500466e-10)
(-88.322 0 -2.31835237294e-10)
(-88.3219999998 0 -4.23841228605e-10)
(-88.322 0 -1.33509350301e-10)
(-88.3220000001 0 -4.75563746758e-10)
(-88.322 0 -4.51979404389e-10)
(-88.322 0 -1.41464195012e-10)
(-88.322 0 7.41300856702e-11)
(-88.322 0 4.19114347333e-11)
(-88.322 0 1.07895539388e-10)
(-88.3219999999 0 -3.6735216381e-10)
(-88.3220000004 0 -7.39173753391e-10)
(-88.3220000002 0 3.36332047756e-10)
(-88.3219999986 0 3.27318827088e-10)
(-88.3219999991 0 7.82675091879e-10)
(-88.3220000021 0 -4.88940868764e-10)
(-88.3220000014 0 -4.74310462887e-10)
(-88.3219999993 0 3.13583623262e-10)
(-88.3219999992 0 3.00636364949e-10)
(-88.3220000001 0 2.97388011313e-10)
(-88.322 0 1.03448651622e-10)
(-88.3220000001 0 3.3814485334e-10)
(-88.322000001 0 1.0413320696e-10)
(-88.3220000002 0 4.46720885233e-11)
(-88.3219999986 0 9.77063290933e-11)
(-88.3220000002 0 -1.4324867612e-10)
(-88.3220000014 0 -3.95112877216e-10)
(-88.3220000004 0 5.53410744254e-10)
(-88.321999998 0 8.19974059967e-10)
(-88.3219999981 0 5.22549580913e-10)
(-88.3220000017 0 7.56434763423e-10)
(-88.3220000011 0 -5.29320144816e-10)
(-88.3219999983 0 -4.66572530957e-11)
(-88.3219999993 0 3.34549359816e-11)
(-88.3220000018 0 -6.8718022574e-11)
(-88.3220000013 0 6.10056912608e-11)
(-88.3219999988 0 -1.0514991257e-10)
(-88.3219999993 0 4.9881353275e-11)
(-88.3220000006 0 -1.22352514349e-10)
(-88.3220000006 0 -3.07799800037e-10)
(-88.3219999988 0 2.46557335646e-10)
(-88.321999999 0 3.47003058234e-10)
(-88.3220000011 0 4.57799501611e-10)
(-88.3219999994 0 -3.46270554906e-10)
(-88.3220000005 0 -3.49434949925e-10)
(-88.3220000012 0 7.45157458113e-10)
(-88.3220000003 0 1.14761869796e-10)
(-88.3220000009 0 1.17636286134e-10)
(-88.3219999979 0 3.56512571975e-10)
(-88.3219999976 0 5.58532602651e-10)
(-88.3220000022 0 6.72328680237e-10)
(-88.3220000018 0 -2.50939385182e-10)
(-88.321999998 0 -4.15288863233e-10)
(-88.3219999979 0 -1.92321945292e-10)
(-88.3220000011 0 4.51081762642e-10)
(-88.3220000006 0 4.21253231238e-10)
(-88.3219999993 0 3.02795321963e-10)
(-88.322 0 -2.00354277776e-10)
(-88.3219999998 0 -2.20671401803e-10)
(-88.3220000004 0 1.42768155816e-10)
(-88.322 0 -2.6108903521e-11)
(-88.3219999998 0 -7.31268507007e-11)
(-88.3219999999 0 -1.22802405601e-10)
(-88.3219999992 0 1.40016880663e-10)
(-88.3220000009 0 1.13478799588e-10)
(-88.3220000014 0 4.1859500409e-11)
(-88.3219999998 0 -3.88881888014e-11)
(-88.322 0 -3.44212729892e-10)
(-88.3220000005 0 -2.58447069654e-11)
(-88.3219999996 0 -9.13150543283e-11)
(-88.321999999 0 -1.13817702304e-10)
(-88.3219999995 0 8.24672713021e-11)
(-88.3219999999 0 -1.17963210935e-10)
(-88.3220000008 0 -1.10561004794e-11)
(-88.3220000017 0 -2.29436422627e-12)
(-88.3219999987 0 -7.00842733265e-11)
(-88.3219999979 0 1.97524105399e-10)
(-88.3219999989 0 2.02993591496e-13)
(-88.3220000015 0 -3.68431560777e-10)
(-88.3220000025 0 -2.35838478331e-10)
(-88.3219999986 0 3.33035580711e-10)
(-88.3219999985 0 4.76573164521e-10)
(-88.322 0 1.08305526832e-10)
(-88.3220000001 0 -4.7908721498e-11)
(-88.3220000001 0 1.82178550512e-10)
(-88.3220000003 0 -9.85111085792e-11)
(-88.3220000005 0 1.64781545545e-10)
(-88.3220000001 0 4.12576897113e-10)
(-88.322 0 3.21663426603e-10)
(-88.3219999999 0 -2.7245541546e-10)
(-88.3220000003 0 5.36492507263e-10)
(-88.3219999994 0 2.71722590139e-10)
(-88.321999999 0 6.46122007306e-10)
(-88.3220000001 0 -5.12937525451e-10)
(-88.3220000015 0 -3.39385731538e-10)
(-88.3220000006 0 5.27046354461e-10)
(-88.3219999992 0 2.04107684755e-10)
(-88.322 0 -5.50401621986e-10)
(-88.322 0 -1.16572439589e-10)
(-88.3220000002 0 3.46616062715e-10)
(-88.322 0 6.05951275511e-10)
(-88.322 0 -4.10276032521e-10)
(-88.3220000009 0 2.35986779763e-10)
(-88.3219999992 0 6.67903881349e-11)
(-88.3219999983 0 5.30608046232e-10)
(-88.3219999996 0 -4.5100000707e-10)
(-88.3220000016 0 2.66188239015e-11)
(-88.3220000017 0 1.57384976071e-10)
(-88.3219999984 0 -5.78195793787e-10)
(-88.3219999989 0 1.16763496195e-10)
(-88.3220000004 0 7.84881046795e-10)
(-88.3220000006 0 7.55976752056e-10)
(-88.322 0 4.75215310049e-10)
(-88.321999999 0 -4.36492812386e-10)
(-88.3220000013 0 -6.09325294809e-10)
(-88.3220000013 0 5.14511886025e-10)
(-88.3219999994 0 5.05203760144e-10)
(-88.3219999996 0 -4.13575718086e-10)
(-88.322 0 -5.26912586844e-10)
(-88.3219999999 0 1.35711693098e-10)
(-88.322 0 -1.76035863284e-10)
(-88.322 0 -4.22767296103e-11)
(-88.322 0 1.27742909813e-10)
(-88.322 0 -2.26125451405e-10)
(-88.322 0 1.82530327307e-10)
(-88.322 0 -1.22792865967e-10)
(-88.322 0 1.52029550825e-10)
(-88.322 0 -2.31556035691e-10)
(-88.322 0 -1.43963562699e-10)
(-88.3220000002 0 -2.21252906084e-10)
(-88.3220000005 0 1.73865025538e-11)
(-88.3219999999 0 3.68343048716e-10)
(-88.3219999995 0 1.81617182937e-10)
(-88.3220000002 0 -1.41474042242e-10)
(-88.3219999997 0 -2.91548545952e-10)
(-88.322 0 1.47657450424e-10)
(-88.3220000002 0 2.01734063367e-10)
(-88.3219999997 0 -2.42613801652e-10)
(-88.322 0 4.13849318778e-10)
(-88.322 0 7.35019415074e-10)
(-88.3220000001 0 -3.14167904757e-10)
(-88.3219999997 0 -3.37523141042e-10)
(-88.3219999997 0 -8.07180614518e-10)
(-88.3220000006 0 4.01964364137e-10)
(-88.322 0 4.34171169924e-10)
(-88.3219999998 0 -3.40377128415e-10)
(-88.3220000002 0 -3.07193101915e-10)
(-88.322 0 -3.46046908874e-10)
(-88.322 0 -2.24167849893e-10)
(-88.322 0 -2.32855239805e-10)
(-88.322 0 -1.14884832013e-10)
(-88.322 0 1.1948462011e-10)
(-88.322 0 1.26162505613e-10)
(-88.3219999997 0 -1.52357871524e-10)
(-88.3220000003 0 3.64181733348e-10)
(-88.3220000003 0 -3.10049235877e-10)
(-88.3219999996 0 -7.23785388292e-10)
(-88.322 0 -5.69468136767e-10)
(-88.3219999997 0 -1.43440157188e-10)
(-88.3220000002 0 -5.20985351359e-11)
(-88.3220000005 0 -4.7518504863e-10)
(-88.3219999999 0 2.35553567607e-10)
(-88.322 0 3.63960368179e-10)
(-88.322 0 -3.81933792062e-10)
(-88.3220000003 0 6.53344935654e-11)
(-88.3220000001 0 -5.23414815214e-10)
(-88.3219999997 0 -4.58712718152e-10)
(-88.322 0 1.47872190834e-10)
(-88.3219999999 0 -8.13809864003e-10)
(-88.322 0 -4.91408903381e-10)
(-88.3219999999 0 -4.94046004977e-10)
(-88.3220000007 0 2.26703689179e-10)
(-88.3220000006 0 2.94895823639e-10)
(-88.3219999985 0 -5.82697305772e-10)
(-88.3219999991 0 -1.24373311569e-10)
(-88.3220000015 0 -4.99516190462e-10)
(-88.3220000003 0 2.69384656351e-10)
(-88.3219999998 0 -4.61105918732e-10)
(-88.3220000003 0 -9.05781375308e-10)