/*--------------------------------*- C++ -*----------------------------------*\
  =========                 |
  \\      /  F ield         | OpenFOAM: The Open Source CFD Toolbox
   \\    /   O peration     | Website:  https://openfoam.org
    \\  /    A nd           | Version:  6
     \\/     M anipulation  |
\*---------------------------------------------------------------------------*/
FoamFile
{
    version     2.0;
    format      ascii;
    class       volScalarField;
    location    "4.52e-05";
    object      p;
}
// * * * * * * * * * * * * * * * * * * * * * * * * * * * * * * * * * * * * * //

dimensions      [1 -1 -2 0 0 0 0];

internalField   nonuniform List<scalar> 
8192
(
6000000.00045
5999999.99942
6000000.00055
6000000.00057
6000000.00391
5999999.99747
6000000.00121
6000000.00005
6000000.00005
5999999.99978
6000000.00023
5999999.99979
6000000.00062
6000000.00143
6000000.00084
6000000.00044
6000000.00065
5999999.99876
5999999.99894
6000000.00066
5999999.99852
5999999.99726
6000000.00176
5999999.99982
5999999.9996
6000000.0001
5999999.99883
5999999.99934
5999999.99823
5999999.99951
6000000.00008
6000000.0003
5999999.99679
5999999.99358
6000000.00773
6000000.0077
5999999.99902
6000000.00471
5999999.99918
5999999.99766
6000000.00249
5999999.99833
5999999.99994
5999999.99994
6000000.00027
6000000.00015
6000000.00001
6000000.00021
5999999.99915
6000000.0012
5999999.99757
6000000.00028
6000000.00277
5999999.99646
5999999.99728
6000000.00153
6000000.00012
6000000.0029
5999999.9997
6000000.00494
5999999.99691
5999999.99767
5999999.99728
6000000.00167
6000000.00032
6000000.00171
5999999.99951
6000000.00352
5999999.9963
6000000.00278
5999999.99889
5999999.9975
6000000.00249
6000000.00286
6000000.00686
5999999.99674
5999999.99412
6000000.00652
6000000.00256
5999999.99562
5999999.9952
5999999.99301
6000000.00315
6000000.00585
6000000.00009
5999999.99898
6000000.00646
6000000.00483
5999999.99817
5999999.99716
5999999.99893
5999999.9985
5999999.99728
6000000.00348
5999999.99729
6000000.00167
6000000.00158
5999999.99959
6000000.00381
5999999.99826
5999999.99968
5999999.99988
5999999.9997
6000000.00009
5999999.99925
6000000.00028
6000000.00011
6000000
5999999.99998
5999999.99998
6000000.00005
6000000.00011
5999999.99963
6000000.00056
5999999.99981
6000000.00101
6000000.00015
5999999.99901
6000000.00085
5999999.99945
5999999.99928
5999999.99905
6000000.00002
5999999.99961
6000000.00017
5999999.99958
6000000.00031
6000000.00028
6000000.00543
6000000.00059
5999999.99814
6000000.00061
5999999.99912
5999999.99938
6000000.00002
5999999.99992
6000000.00026
6000000.00084
5999999.9985
6000000.00379
6000000.00085
6000000.00325
6000000.00462
5999999.99705
5999999.99638
5999999.99804
6000000.00225
6000000.00232
5999999.99996
5999999.99986
5999999.99885
6000000.00072
5999999.99527
6000000.00112
5999999.99656
5999999.99646
6000000.00123
6000000.00035
5999999.99879
5999999.99915
5999999.99979
5999999.99959
6000000.00029
6000000.00053
5999999.99967
6000000.00241
6000000.00021
6000000.00088
5999999.99851
6000000.00046
5999999.99787
6000000.00302
6000000.00224
6000000.00281
6000000.00191
6000000.00424
6000000.00228
6000000.00095
5999999.99437
6000000.00246
6000000.00134
5999999.99843
6000000.00075
5999999.99813
6000000.00253
6000000.00124
6000000.0022
5999999.99435
5999999.99236
6000000.00183
6000000.00638
6000000.00418
5999999.99943
5999999.99982
6000000.00044
6000000.00007
5999999.99992
6000000.00001
5999999.99997
6000000.00001
6000000.00015
6000000.00001
6000000.0001
5999999.998
5999999.99785
6000000.00252
5999999.99927
6000000
6000000.00003
5999999.99998
6000000.00006
6000000.00018
6000000.00018
5999999.99945
5999999.99994
6000000.00003
5999999.99981
5999999.99998
5999999.9999
5999999.99672
6000000.00026
6000000.00143
5999999.99727
6000000.00091
6000000.00704
5999999.99398
5999999.99668
6000000.00541
6000000.00868
5999999.99171
5999999.99614
6000000.00168
6000000.00374
5999999.99604
6000000.00294
6000000.00005
6000000.00426
5999999.99815
6000000.00723
6000000.0037
5999999.99254
6000000.0003
6000000.00558
5999999.99792
6000000.00506
5999999.99467
5999999.99889
6000000.00175
6000000.00265
6000000.00323
6000000.00061
6000000.00208
6000000.00065
5999999.99896
5999999.99943
5999999.99916
5999999.9998
5999999.99892
6000000.00034
5999999.99821
6000000.00258
5999999.99868
5999999.99979
5999999.99942
5999999.99986
5999999.99992
5999999.99997
6000000.00086
6000000.00145
5999999.99725
6000000.00048
6000000.00059
6000000.00012
6000000.00231
5999999.99541
5999999.99738
6000000.00547
6000000.00152
5999999.99618
5999999.99538
5999999.99911
5999999.99519
5999999.99829
5999999.99492
6000000.00128
6000000.00443
5999999.9966
6000000.00059
5999999.99909
6000000.00134
5999999.99977
5999999.99921
6000000.00165
5999999.99757
6000000.00131
5999999.99998
6000000.00002
6000000.00016
6000000.00001
6000000.00001
6000000.00002
6000000.00018
5999999.9989
6000000.00168
5999999.99742
5999999.99974
5999999.99892
6000000.00106
6000000.00467
5999999.99823
5999999.99456
6000000.00247
6000000.00545
5999999.99822
6000000.00344
5999999.99821
6000000.00589
5999999.99706
5999999.99722
5999999.99669
6000000.00225
6000000.00165
5999999.99639
6000000.00177
6000000.00068
6000000.00059
6000000.00064
5999999.99937
6000000.00001
6000000.00027
5999999.99861
6000000.00271
6000000.0023
6000000.00093
6000000.00018
5999999.99965
5999999.99758
5999999.99785
6000000.00054
6000000.00064
5999999.9999
5999999.99881
5999999.99823
6000000.00092
5999999.99698
6000000.00073
5999999.99712
5999999.99405
5999999.99636
6000000.003
5999999.99768
5999999.9962
6000000.00733
5999999.99874
6000000.00306
6000000.00018
5999999.99746
6000000.00393
5999999.99638
6000000.00315
5999999.99972
5999999.99959
6000000.00038
6000000
6000000.00028
6000000.00009
6000000.00027
6000000.00172
5999999.99847
6000000.00279
6000000.00082
5999999.99817
6000000.00159
5999999.99985
5999999.9998
6000000.00405
5999999.99872
6000000.00307
6000000.00322
5999999.99357
5999999.99338
5999999.99583
5999999.99879
6000000.00072
6000000.00155
6000000.00198
5999999.99527
5999999.99173
6000000.00161
5999999.99671
5999999.99863
6000000.00526
5999999.9985
5999999.99888
6000000.0016
5999999.99726
5999999.99795
6000000.00657
5999999.99602
5999999.99881
5999999.99343
6000000.00128
6000000.00532
6000000.00003
5999999.99793
5999999.99158
6000000.00332
5999999.99967
6000000.00381
5999999.99826
5999999.99703
6000000.00254
5999999.99514
5999999.99437
6000000.00015
6000000.00308
5999999.99819
5999999.99787
5999999.99757
6000000.00183
6000000.00214
5999999.99836
6000000.00146
5999999.99878
5999999.99942
6000000.00049
5999999.99977
5999999.99998
6000000.00005
5999999.99991
6000000.00096
5999999.99669
6000000.00086
6000000.00013
5999999.99955
5999999.99752
6000000.00128
6000000.00064
5999999.99884
6000000.00079
6000000.00108
5999999.99822
5999999.99913
6000000.00024
5999999.99945
5999999.99764
5999999.99711
5999999.99875
5999999.99644
6000000.00177
6000000.0018
6000000.0006
6000000.00027
5999999.99946
6000000.00204
5999999.99819
6000000.00284
6000000.00208
5999999.99519
6000000.00435
6000000.00153
6000000.00046
6000000.00081
5999999.99864
6000000.00204
5999999.99948
5999999.99938
6000000.00049
6000000.00013
5999999.99974
5999999.99798
6000000.0029
5999999.99751
5999999.9996
6000000.00123
5999999.99747
6000000.00284
5999999.99725
6000000.00167
5999999.99924
6000000.00001
5999999.99811
6000000.00266
6000000.00637
5999999.99807
5999999.99815
6000000.00042
6000000.00254
5999999.9988
5999999.99812
6000000.00434
5999999.9985
5999999.99992
5999999.99989
6000000.00062
6000000.00268
5999999.9979
6000000.00368
5999999.99862
5999999.99872
6000000.00173
5999999.99986
5999999.9998
6000000.00276
6000000.00107
6000000.00219
5999999.99931
5999999.99874
5999999.99944
5999999.99685
5999999.99559
6000000.00216
6000000.00061
5999999.99871
5999999.99965
5999999.99921
6000000.00003
5999999.9988
6000000.00035
5999999.99946
6000000.00017
6000000.00014
6000000.00002
6000000.00002
5999999.99945
6000000.00021
6000000.00003
5999999.99988
5999999.99989
5999999.99981
6000000.00008
6000000.0001
5999999.99986
5999999.99989
5999999.99982
6000000.00002
5999999.99981
5999999.99992
5999999.99981
5999999.99983
6000000.00001
6000000
5999999.99981
5999999.99998
6000000
5999999.99996
5999999.99867
6000000.00266
5999999.99823
5999999.99943
5999999.99948
5999999.99953
6000000.00004
5999999.99998
6000000.00001
6000000.00005
6000000.00046
6000000.00018
6000000.00002
6000000.00006
5999999.99969
5999999.99766
6000000.00253
6000000.00176
5999999.99915
5999999.99411
5999999.99248
6000000.00188
6000000.00476
6000000.00162
6000000.00408
5999999.99673
6000000.00453
5999999.99395
6000000.00066
5999999.99667
6000000.00046
6000000.00029
6000000.002
5999999.9993
6000000.00158
5999999.99732
6000000.00094
6000000.0001
6000000.00004
6000000.00023
6000000.00011
5999999.99989
5999999.99932
6000000.00189
5999999.99984
6000000.00001
6000000.00002
5999999.99992
5999999.99993
6000000.00004
6000000.00025
5999999.99962
5999999.9992
5999999.99912
5999999.99882
5999999.99979
5999999.99891
5999999.99782
6000000.00117
6000000.00074
6000000.00066
6000000.00183
5999999.99792
5999999.99713
6000000.0077
6000000.00352
6000000.00088
6000000.00348
5999999.99747
5999999.99928
6000000.00025
5999999.99982
6000000.00028
6000000.00007
6000000.00051
5999999.99998
6000000.00188
5999999.99915
5999999.99905
6000000.00001
5999999.99968
6000000.00031
6000000.00439
5999999.99999
5999999.9976
6000000.00311
6000000.00194
6000000.00096
6000000.00089
5999999.99744
5999999.99847
6000000.00475
6000000.00426
6000000.00283
5999999.99801
5999999.99779
6000000.00241
5999999.99973
5999999.99848
5999999.99774
6000000.00286
6000000.00193
6000000.00023
6000000.00124
5999999.9988
6000000.0008
5999999.99958
6000000.00057
6000000.00057
6000000.0005
6000000.00063
5999999.99939
5999999.99904
6000000.00176
6000000.0014
5999999.99373
5999999.99515
6000000.00358
6000000.00136
6000000.00007
5999999.99846
6000000.00246
5999999.99767
6000000.00084
6000000.0015
6000000.00236
5999999.99403
6000000.00289
6000000.00178
6000000.00532
5999999.9951
5999999.99748
6000000.00144
6000000.00115
5999999.99445
5999999.99861
6000000.00306
6000000.0058
5999999.99891
6000000.00178
6000000.00138
6000000.00462
5999999.99713
6000000.00113
6000000.00169
5999999.99604
6000000.00328
6000000.00318
6000000.00568
6000000.00886
5999999.99507
5999999.99774
6000000.00413
6000000.006
5999999.99404
5999999.99422
6000000.00232
5999999.9976
6000000.00001
6000000.00038
5999999.99727
6000000.00255
5999999.99782
6000000.00142
5999999.99719
5999999.99559
6000000.00279
6000000.00356
5999999.99917
6000000.00353
6000000.00164
6000000.00062
5999999.99949
5999999.99996
5999999.99843
6000000.00393
6000000.00776
5999999.99642
5999999.99883
5999999.99208
6000000.00531
6000000.00617
5999999.99589
5999999.99678
5999999.99628
5999999.99769
5999999.9962
6000000.00027
5999999.99938
6000000.00041
5999999.99967
5999999.99952
6000000.0027
5999999.9954
5999999.99569
5999999.99659
6000000.0054
6000000
5999999.9996
6000000.00096
5999999.99951
6000000.002
5999999.99939
6000000.00156
6000000.00616
5999999.99616
5999999.99503
5999999.99403
6000000.00251
6000000.00244
5999999.99334
5999999.99773
5999999.99672
6000000.00139
5999999.99852
5999999.99431
6000000.00401
6000000.00344
6000000.00006
6000000.00089
5999999.99998
6000000.00018
6000000.00006
6000000.00006
6000000.00001
5999999.99998
5999999.99992
5999999.99989
6000000.00015
6000000.00011
5999999.99924
6000000.00128
6000000.00487
6000000.00026
6000000.00034
6000000.00206
5999999.99924
6000000.00251
6000000.00048
5999999.99967
5999999.99993
5999999.99982
6000000.00156
5999999.99774
5999999.99755
6000000.00135
5999999.99778
6000000.00064
5999999.99946
5999999.99991
5999999.99973
6000000
5999999.99985
6000000.00004
5999999.99993
5999999.99739
6000000.00269
5999999.99906
5999999.99939
5999999.99995
5999999.99697
6000000.00079
6000000.00064
6000000.00004
6000000.00026
5999999.99893
6000000.00301
5999999.99987
5999999.99997
6000000.00054
5999999.99951
6000000.00041
5999999.99829
6000000.00437
6000000.00298
5999999.99669
5999999.99811
6000000.0022
5999999.99805
6000000.00298
5999999.99963
6000000.00001
6000000
5999999.99975
6000000.00006
5999999.99968
6000000.0011
5999999.9977
6000000.00174
6000000.00081
6000000.00058
5999999.99964
6000000.00042
5999999.99729
6000000.006
6000000.00303
5999999.99517
6000000.00156
6000000.00328
6000000.0041
5999999.99676
5999999.99576
6000000.00264
5999999.99877
5999999.99971
6000000.00007
5999999.99994
5999999.99992
5999999.99998
6000000.00002
5999999.99989
5999999.99993
5999999.99989
6000000.00007
5999999.99894
6000000.00158
5999999.99768
5999999.99943
6000000.00144
5999999.99447
6000000.00451
6000000.00445
6000000.00174
5999999.99908
6000000.00341
6000000.0049
5999999.99777
5999999.99664
6000000.00376
5999999.99979
6000000.00332
6000000.0048
6000000.00058
6000000.00599
6000000.00001
5999999.99977
6000000.00103
6000000.00066
5999999.99987
5999999.99999
6000000.00339
5999999.99894
6000000.00118
6000000.00192
6000000.00328
6000000.00194
5999999.99451
6000000.00114
6000000.00042
5999999.99994
5999999.99926
6000000.00484
6000000.0025
5999999.99841
6000000.00245
5999999.9999
5999999.9998
6000000.00068
5999999.99933
6000000.00164
5999999.99332
6000000.00287
6000000.00197
5999999.99951
5999999.99957
6000000.00019
6000000.00049
6000000.00023
6000000.00004
6000000.00002
6000000.00001
6000000.00001
5999999.99989
6000000.00001
5999999.99981
6000000.00001
6000000.00004
5999999.99952
6000000.00055
6000000
5999999.99981
5999999.99988
6000000.00002
5999999.99915
5999999.99989
6000000.00029
6000000.00071
5999999.99808
5999999.9983
6000000.00091
6000000.00102
5999999.99964
6000000.00045
5999999.99876
6000000.0023
6000000.00174
6000000.00057
6000000.00033
5999999.99951
5999999.99876
6000000.00218
5999999.99517
6000000.00671
5999999.99664
5999999.99543
6000000.00441
6000000.00343
6000000.00541
6000000.00005
6000000.00024
5999999.99597
5999999.99513
5999999.9962
6000000.00126
5999999.99769
6000000.00431
5999999.99964
5999999.99809
6000000.00072
5999999.99787
6000000.00118
5999999.99806
6000000.00441
5999999.99458
5999999.9967
6000000.00505
5999999.99577
5999999.99692
5999999.99841
6000000.00118
6000000.00123
6000000.00085
6000000.00002
6000000.00092
5999999.99995
6000000.00195
5999999.99594
6000000.00118
6000000.00075
5999999.99992
5999999.99778
5999999.99969
5999999.99976
5999999.99765
5999999.99897
6000000.00088
5999999.99995
6000000.00105
6000000.00178
5999999.99845
5999999.99893
6000000.00349
5999999.99928
5999999.99987
5999999.99998
6000000.00001
6000000.00001
6000000.00014
6000000.00002
6000000
6000000.00017
6000000.0004
5999999.99718
6000000.00023
5999999.99996
5999999.99981
6000000.00001
6000000.00039
5999999.99821
6000000.00265
6000000.00181
5999999.99497
6000000.00681
5999999.99385
5999999.9925
6000000.00332
6000000.00523
5999999.99328
5999999.99777
5999999.99794
5999999.99975
6000000.0016
5999999.99854
6000000.00113
5999999.997
5999999.99775
5999999.99981
5999999.99831
6000000.0021
5999999.99738
6000000.00182
6000000.00316
5999999.99538
5999999.99678
5999999.99544
5999999.9997
6000000.00468
6000000.00156
5999999.99629
5999999.99298
6000000.00398
6000000.00327
5999999.99461
5999999.99868
6000000.00473
6000000.00401
5999999.99739
5999999.99843
6000000.00322
5999999.99993
6000000.00002
6000000.00001
5999999.99999
6000000.00029
6000000.00154
5999999.99872
5999999.99858
5999999.9993
5999999.99991
6000000.00064
6000000.00003
6000000.00028
5999999.99871
5999999.99798
6000000.00118
6000000.00018
6000000.00003
6000000.00002
5999999.99999
5999999.99984
5999999.99996
6000000.0001
5999999.99979
5999999.99861
6000000.00019
6000000.00253
5999999.99787
5999999.99993
5999999.99995
5999999.99585
6000000.0013
6000000.00063
6000000.00311
6000000.00134
6000000.00017
6000000.00052
6000000.00039
5999999.99778
6000000.00347
5999999.99756
6000000.00221
6000000.00147
6000000.00427
5999999.99972
5999999.9996
6000000.00596
6000000.0024
6000000.00238
6000000.00174
5999999.99602
5999999.99909
6000000.002
6000000.00017
5999999.9975
5999999.99793
6000000.00141
5999999.99683
5999999.9994
5999999.99754
6000000.0002
6000000.00214
5999999.99913
5999999.99898
5999999.99873
5999999.99985
5999999.99979
6000000.00053
6000000.0001
6000000.00019
5999999.99945
6000000.00117
6000000.00143
5999999.99747
6000000
6000000.00009
6000000.00002
6000000.0001
6000000.00006
6000000.00035
6000000.00113
5999999.99864
6000000.00188
6000000.0013
5999999.99702
6000000.00421
5999999.99492
5999999.99926
6000000.00265
6000000.00655
6000000.00312
6000000.00163
6000000.00165
5999999.99375
5999999.9976
5999999.99835
5999999.99966
6000000.00231
6000000.00513
5999999.99386
5999999.9971
5999999.99461
6000000.00589
6000000.0028
6000000.00253
5999999.99909
6000000.0005
6000000.00081
6000000.00141
5999999.99952
5999999.99908
5999999.99968
6000000.00001
6000000
6000000.0006
5999999.9992
6000000.00093
5999999.99931
6000000.00024
5999999.99888
5999999.99581
6000000.00203
6000000.0008
5999999.9958
5999999.99539
6000000.00568
5999999.99779
5999999.99567
6000000.0018
6000000.00647
5999999.99519
6000000.00358
5999999.99901
5999999.99888
6000000.00415
5999999.99972
6000000.00013
6000000
6000000.00001
6000000.00006
6000000.00001
6000000.00006
6000000.00002
6000000.00007
6000000.00019
6000000.00025
6000000.00004
6000000.00002
5999999.99983
6000000.00052
6000000.00163
5999999.99638
6000000.0035
6000000.00515
5999999.99854
6000000.00163
6000000.00135
6000000.00158
5999999.9995
6000000.00043
5999999.9938
6000000.00094
5999999.99921
6000000.00151
6000000.0016
5999999.99889
5999999.99872
5999999.99925
5999999.99942
6000000.00016
5999999.99901
6000000.00101
6000000.00228
5999999.99865
5999999.99948
5999999.99942
6000000.00043
6000000.00005
6000000.00001
5999999.99996
5999999.99948
6000000.00047
5999999.99947
5999999.99762
6000000.00302
5999999.997
6000000.00182
5999999.99933
5999999.99955
5999999.99971
5999999.99928
6000000.00198
5999999.99535
6000000.00204
5999999.9994
5999999.99964
6000000.00003
5999999.99944
5999999.99991
5999999.99992
6000000.00054
5999999.99911
5999999.99917
6000000.00002
5999999.99993
5999999.99992
5999999.99998
6000000.00009
5999999.99993
5999999.99988
6000000.00001
5999999.9999
5999999.9999
6000000.00001
5999999.99988
6000000.00058
5999999.99999
6000000.00013
6000000.00012
6000000.00101
5999999.99878
6000000.00193
5999999.99711
6000000.00176
6000000.00119
6000000.00197
6000000.00247
5999999.99702
5999999.9996
5999999.99839
6000000.00163
5999999.99913
5999999.99792
6000000.00078
5999999.99876
5999999.9994
5999999.99983
6000000.00035
6000000.0035
6000000.00117
6000000.00332
5999999.99882
6000000.00027
6000000.00197
5999999.99553
6000000.00134
5999999.99683
6000000.00415
6000000.00259
5999999.99499
5999999.9957
5999999.99545
6000000.00518
6000000.002
6000000.00592
5999999.99695
5999999.99718
6000000.00094
5999999.99433
5999999.99524
5999999.99744
5999999.99817
6000000.00123
5999999.99611
5999999.99757
5999999.99272
5999999.99966
5999999.9951
5999999.99772
5999999.997
5999999.99694
5999999.99671
5999999.99544
6000000.00348
6000000.0007
6000000.0008
5999999.996
6000000.00123
6000000.00008
5999999.99976
6000000.00033
5999999.99953
5999999.99986
5999999.99676
6000000.00395
5999999.99417
5999999.99434
6000000.00143
5999999.99496
5999999.995
6000000.00616
5999999.99526
5999999.99396
6000000.00068
6000000.00161
5999999.9999
6000000.00048
6000000.00009
6000000.00003
5999999.99989
6000000.00044
5999999.99952
6000000.00043
6000000.00008
6000000.00012
6000000.00006
5999999.99992
5999999.99993
6000000.00005
6000000.00071
5999999.99911
5999999.99947
6000000.00127
5999999.99984
5999999.99993
5999999.99981
5999999.99956
5999999.99903
6000000.00028
6000000.00001
5999999.99962
5999999.99992
5999999.99957
6000000.00019
6000000.00145
5999999.99934
6000000.00095
6000000.002
6000000.00237
5999999.99717
5999999.99806
6000000.0023
5999999.99974
6000000.00047
6000000.00053
5999999.99769
6000000.00223
6000000.00162
6000000.00031
5999999.99903
6000000.00008
5999999.99785
6000000.00234
6000000.00053
6000000.0012
5999999.99911
5999999.99842
6000000.00469
6000000.00502
5999999.99277
5999999.9971
6000000.00212
6000000.0015
5999999.9988
6000000.00125
6000000.0001
6000000.0028
5999999.99898
6000000.00134
5999999.99981
5999999.99988
6000000.00001
6000000.00004
5999999.99997
5999999.99998
5999999.99998
6000000.00001
6000000.00004
6000000.00014
6000000.00001
6000000.00001
6000000.00001
5999999.99998
6000000.00016
6000000.00001
6000000.00001
5999999.99993
5999999.99996
6000000.00014
6000000.00003
5999999.99995
6000000.00014
6000000.00001
6000000.00001
5999999.99991
6000000.00009
5999999.99995
6000000.00002
6000000.00004
5999999.99958
5999999.99954
5999999.99983
6000000.00013
6000000.00188
5999999.99924
5999999.9998
5999999.99992
6000000.00006
6000000.00001
6000000.00009
5999999.99993
6000000.00001
6000000.00001
5999999.99995
5999999.99948
6000000.00049
5999999.99883
6000000.00237
5999999.99999
5999999.99904
6000000.0015
5999999.99867
6000000.00273
6000000.00397
5999999.99917
5999999.99966
6000000.00634
6000000.00093
6000000.0006
6000000.00044
5999999.99981
6000000.00004
6000000.00006
6000000.00023
6000000.00004
6000000.00007
6000000.00009
5999999.99965
6000000.00044
6000000.00017
6000000.00022
6000000.00013
5999999.99989
6000000.00002
5999999.99992
6000000.00002
6000000
6000000.00058
5999999.99828
5999999.99788
6000000.00312
5999999.99789
6000000.00289
5999999.99754
5999999.99918
6000000.00008
5999999.99765
5999999.9992
6000000.00276
5999999.99611
5999999.99421
6000000.00055
5999999.99442
5999999.99318
6000000.00158
5999999.99722
5999999.99935
5999999.99622
6000000.00185
6000000.00174
5999999.99763
6000000.0035
5999999.99818
5999999.99834
6000000.0017
6000000.00158
6000000.00024
5999999.99956
5999999.99989
6000000.00004
5999999.99992
5999999.99984
6000000.00081
5999999.99959
6000000.00131
5999999.99872
5999999.99864
6000000.00029
5999999.99891
5999999.99944
5999999.99813
5999999.99902
5999999.99907
5999999.99995
5999999.99904
6000000.00327
5999999.99936
5999999.99908
5999999.99964
5999999.99998
5999999.99996
5999999.99986
5999999.99984
6000000.00021
5999999.99998
5999999.99996
6000000.00014
6000000.00002
5999999.99998
6000000.00006
5999999.99998
6000000.00016
5999999.99988
6000000.00068
5999999.9979
5999999.99919
6000000.00044
6000000
5999999.99998
5999999.99998
6000000
5999999.99989
5999999.99985
5999999.99999
5999999.99993
5999999.99929
6000000.00052
5999999.99953
6000000.00069
5999999.99979
5999999.99987
6000000.00139
5999999.99959
5999999.99988
5999999.99994
6000000.00006
5999999.99991
5999999.99998
5999999.99986
5999999.99991
5999999.99998
5999999.99987
5999999.99916
6000000.00024
5999999.99906
6000000.00279
5999999.99916
6000000.00041
6000000.00012
5999999.99986
5999999.99987
6000000.00065
5999999.99944
5999999.99554
6000000.00263
6000000.00013
6000000.00011
6000000.00013
6000000.00077
6000000.00068
5999999.99833
6000000.00284
6000000.00334
6000000.00039
5999999.99846
6000000.00261
6000000.00178
5999999.99819
6000000.004
6000000.00039
6000000.00252
5999999.99688
5999999.9978
6000000.00068
5999999.9991
6000000
5999999.99729
6000000.00316
6000000.00058
5999999.99953
6000000.00015
5999999.9984
6000000.0022
5999999.99874
6000000.00166
5999999.9961
6000000.0046
6000000.00403
5999999.99803
6000000.00148
5999999.99378
5999999.99335
6000000.00353
6000000.00279
6000000.00518
5999999.99879
5999999.99649
6000000.00451
5999999.99671
5999999.99851
5999999.99895
5999999.9988
6000000.00036
5999999.9994
6000000.00015
5999999.9997
5999999.99975
6000000.00011
5999999.99828
6000000.0014
5999999.99971
5999999.99957
6000000.00112
5999999.99911
6000000.0008
5999999.99681
6000000
5999999.99998
5999999.99964
5999999.99866
5999999.99842
6000000.00161
6000000.00082
5999999.99955
6000000.00557
6000000.00236
5999999.99611
6000000.00255
5999999.9987
6000000.00545
6000000.00374
5999999.99708
5999999.9957
5999999.99879
6000000.00653
6000000.002
5999999.99764
5999999.99705
5999999.99534
6000000.00295
5999999.99689
5999999.99534
5999999.99876
5999999.9947
6000000.00411
5999999.99739
5999999.99718
5999999.99885
6000000.00151
5999999.99746
5999999.99835
6000000.00155
6000000.00106
5999999.99723
5999999.99746
5999999.99632
5999999.9964
5999999.99698
5999999.99797
6000000.00031
5999999.99455
5999999.99458
6000000.00071
5999999.9999
5999999.99586
5999999.99602
5999999.99523
5999999.9944
6000000.0046
5999999.99769
5999999.99336
5999999.99966
5999999.99552
6000000.00182
6000000.00506
5999999.99249
5999999.99437
5999999.99765
6000000.00529
6000000.00139
5999999.99837
6000000.00355
6000000.00438
5999999.99981
6000000.0061
5999999.99617
5999999.99355
6000000.00375
6000000.00145
5999999.99939
5999999.9946
5999999.99641
6000000.00276
5999999.99597
5999999.99846
6000000.0021
5999999.99895
6000000.00291
6000000.00717
6000000.00332
5999999.99937
5999999.99522
5999999.99723
6000000.00586
6000000.00226
5999999.99555
5999999.99703
6000000.00085
6000000.00633
6000000.00097
5999999.99892
5999999.99983
6000000.00216
5999999.99846
5999999.9991
6000000.00411
6000000.00217
5999999.99696
6000000.00268
5999999.9966
5999999.99963
5999999.99735
6000000.00096
6000000.00163
5999999.99401
5999999.99998
6000000.00109
5999999.99409
5999999.99757
6000000.00334
5999999.99815
5999999.99811
6000000.00302
5999999.99849
5999999.9966
5999999.9959
5999999.99848
5999999.99674
5999999.99929
5999999.99785
6000000.0069
5999999.99754
6000000.00081
6000000.00534
5999999.99858
6000000.002
6000000.00005
6000000.00878
5999999.99705
6000000.00059
6000000.00644
6000000.00707
5999999.99886
5999999.99767
6000000.01009
6000000.00795
6000000.00618
5999999.99809
5999999.9978
6000000.00804
6000000.00864
6000000.00176
6000000.00673
6000000.0024
5999999.99477
6000000.00678
6000000.00813
6000000.0001
5999999.99711
6000000.00764
6000000.00266
5999999.99385
6000000.00237
6000000.0022
6000000.00911
6000000.00786
5999999.99755
6000000.00214
6000000.00734
5999999.9962
5999999.99913
6000000.00657
6000000.00941
6000000.00043
6000000.00628
6000000.00571
6000000.00484
5999999.99799
6000000.00103
6000000.00846
6000000.0095
6000000.01026
6000000.00303
6000000.00287
6000000.00642
6000000.01047
5999999.99967
6000000.00272
6000000.00583
5999999.99652
6000000.00567
6000000.00531
6000000.00981
6000000.00423
6000000.00746
6000000.00584
5999999.99347
6000000.00687
6000000.00218
5999999.99832
6000000.0088
5999999.99881
5999999.99986
5999999.99866
6000000.00048
5999999.99829
5999999.99972
5999999.99904
5999999.99951
5999999.99935
5999999.9995
5999999.99735
5999999.99785
5999999.9996
5999999.99818
6000000.00021
5999999.99821
5999999.99872
5999999.99815
6000000.00015
5999999.99799
5999999.99735
5999999.99845
5999999.99968
5999999.99851
5999999.99883
5999999.9996
5999999.99736
5999999.9985
5999999.99928
5999999.99586
5999999.9984
6000000.00028
5999999.99911
5999999.99669
5999999.99943
5999999.99757
5999999.99987
5999999.99891
5999999.99873
5999999.99674
5999999.99923
5999999.99997
5999999.99791
5999999.99941
5999999.99968
5999999.99867
5999999.99883
5999999.99922
5999999.99673
5999999.99685
5999999.99933
5999999.99994
6000000.00012
6000000.00035
5999999.99819
5999999.99904
5999999.99799
5999999.99819
5999999.99837
5999999.9987
5999999.99961
6000000.00037
6000000.00209
5999999.99838
5999999.9994
5999999.9994
5999999.99979
5999999.99966
6000000.00069
5999999.99972
5999999.99956
6000000.0004
5999999.99973
5999999.99967
5999999.99971
5999999.99972
6000000.00053
5999999.99998
5999999.99978
5999999.99959
6000000.00024
6000000.00034
5999999.99975
6000000.00025
5999999.99978
6000000.00036
5999999.99988
5999999.99975
6000000.00021
5999999.99997
6000000.0004
5999999.99987
6000000.00003
5999999.99954
6000000.00032
6000000.00037
6000000.00023
6000000.00051
5999999.99987
6000000.00047
6000000.00049
5999999.99976
6000000.00019
5999999.99979
6000000.00033
6000000.00007
5999999.99968
6000000.00056
6000000.00023
6000000.0004
6000000.00029
5999999.99957
5999999.99974
5999999.99972
6000000.00007
6000000.00008
6000000.00031
6000000.00039
5999999.99972
5999999.99996
6000000.00027
6000000.00002
6000000.00032
6000000.00017
6000000.00016
6000000.00042
5999999.99967
6000000.00055
6000000.00064
6000000.00091
6000000.00093
6000000.00104
6000000.00066
6000000.00095
6000000.0008
6000000.00128
6000000.00071
6000000.0008
6000000.00079
6000000.00083
6000000.00073
6000000.00078
6000000.00083
6000000.00092
6000000.00073
6000000.00086
6000000.00106
6000000.00085
6000000.001
6000000.00111
6000000.00065
6000000.00099
6000000.0009
6000000.00084
6000000.0007
6000000.00054
6000000.00093
6000000.00086
6000000.00082
6000000.00091
6000000.00083
6000000.00116
6000000.00068
6000000.00094
6000000.00063
6000000.00077
6000000.00056
6000000.00078
6000000.00093
6000000.00092
6000000.00098
6000000.00086
6000000.00089
6000000.00091
6000000.00073
6000000.00093
6000000.0011
6000000.00109
6000000.00075
6000000.00082
6000000.00074
6000000.00092
6000000.00095
6000000.0009
6000000.00095
6000000.00098
6000000.00096
6000000.00088
6000000.00084
6000000.00112
6000000.0013
6000000.00085
5999999.99903
5999999.99879
5999999.9989
5999999.99901
5999999.99882
5999999.9993
5999999.9989
5999999.99882
5999999.99871
5999999.99879
5999999.99894
5999999.99911
5999999.9991
5999999.9989
5999999.9987
5999999.99882
5999999.99877
5999999.99903
5999999.99891
5999999.9991
5999999.99891
5999999.99883
5999999.99912
5999999.9991
5999999.99883
5999999.99894
5999999.99935
5999999.99886
5999999.99895
5999999.99905
5999999.99901
5999999.99942
5999999.99909
5999999.99913
5999999.99888
5999999.99889
5999999.99917
5999999.99879
5999999.99865
5999999.99872
5999999.99903
5999999.99908
5999999.99886
5999999.99906
5999999.999
5999999.99898
5999999.99938
5999999.9991
5999999.99882
5999999.99899
5999999.99889
5999999.99873
5999999.99888
5999999.99869
5999999.99899
5999999.99889
5999999.99903
5999999.99902
5999999.99896
5999999.99895
5999999.9989
5999999.99903
5999999.99889
5999999.99883
5999999.99952
5999999.99931
5999999.99951
5999999.99973