/*--------------------------------*- C++ -*----------------------------------*\
  =========                 |
  \\      /  F ield         | OpenFOAM: The Open Source CFD Toolbox
   \\    /   O peration     | Website:  https://openfoam.org
    \\  /    A nd           | Version:  6
     \\/     M anipulation  |
\*---------------------------------------------------------------------------*/
FoamFile
{
    version     2.0;
    format      ascii;
    class       volScalarField;
    location    "4.85e-05";
    object      p;
}
// * * * * * * * * * * * * * * * * * * * * * * * * * * * * * * * * * * * * * //

dimensions      [1 -1 -2 0 0 0 0];

internalField   nonuniform List<scalar> 
8192
(
6000000.00072
5999999.99938
6000000.0004
6000000.00105
6000000.00478
5999999.99788
6000000.00171
5999999.99944
6000000.00042
5999999.99985
6000000.0002
5999999.99981
6000000.00057
6000000.0014
6000000.00076
6000000.00063
6000000.00053
5999999.99811
5999999.99907
6000000.00064
5999999.99851
5999999.99728
6000000.0017
5999999.99988
5999999.99948
6000000.00004
5999999.99802
5999999.99913
5999999.99823
5999999.99897
6000000.00024
6000000.00064
5999999.99642
5999999.99386
6000000.00773
6000000.00758
5999999.99908
6000000.00438
5999999.99956
5999999.99701
6000000.00388
5999999.99754
6000000.0003
5999999.99989
6000000.00043
6000000.00039
6000000.00013
5999999.99974
5999999.99926
6000000.00166
5999999.9969
6000000.0007
6000000.00319
5999999.99577
5999999.99633
6000000.00119
5999999.99994
6000000.00319
6000000.00005
6000000.00589
5999999.99658
5999999.99734
5999999.99696
6000000.00258
6000000.00079
6000000.0022
5999999.99994
6000000.00399
5999999.99557
6000000.00325
5999999.99864
5999999.99657
6000000.00268
6000000.00274
6000000.00682
5999999.99674
5999999.99448
6000000.00643
6000000.00246
5999999.99527
5999999.99445
5999999.99184
6000000.00316
6000000.00585
6000000.00012
5999999.99918
6000000.00639
6000000.00471
5999999.99745
5999999.99716
5999999.99838
5999999.9983
5999999.99702
6000000.00449
5999999.99675
6000000.00234
6000000.00161
5999999.99947
6000000.0038
5999999.99823
5999999.99967
5999999.99988
5999999.9997
6000000.00026
5999999.99906
6000000.00029
6000000.00012
6000000
5999999.99998
5999999.99998
6000000.00008
6000000.00029
5999999.99939
6000000.00064
5999999.99969
6000000.00139
6000000.00009
5999999.99859
6000000.00076
5999999.99901
5999999.99923
5999999.99882
6000000.00019
5999999.99879
6000000.00019
5999999.99951
6000000.00028
6000000.00035
6000000.00612
6000000.00054
5999999.99674
6000000.00056
5999999.99854
5999999.99956
5999999.99997
5999999.99964
6000000.00077
6000000.0009
5999999.99852
6000000.00369
6000000.00074
6000000.00322
6000000.00438
5999999.99649
5999999.99689
5999999.99805
6000000.00211
6000000.0023
5999999.99986
5999999.99987
5999999.99882
6000000.00069
5999999.99471
6000000.00053
5999999.99709
5999999.99672
6000000.0017
6000000.00121
5999999.99834
5999999.99913
5999999.99978
5999999.99959
6000000.00015
6000000.00049
5999999.99962
6000000.00224
6000000.00018
6000000.00115
5999999.99772
6000000.00063
5999999.99732
6000000.00322
6000000.00198
6000000.00272
6000000.00195
6000000.00409
6000000.00224
6000000.00032
5999999.99417
6000000.00298
6000000.00169
5999999.99786
6000000.00069
5999999.99795
6000000.00291
6000000.00079
6000000.00207
5999999.99301
5999999.99249
6000000.00185
6000000.00631
6000000.00419
5999999.99926
5999999.99931
6000000.00119
6000000.00041
5999999.99989
6000000.00001
5999999.99997
6000000.00001
6000000.00015
6000000.00006
6000000.00001
5999999.99746
5999999.99754
6000000.003
5999999.99923
5999999.99997
6000000.00005
5999999.99998
6000000.0001
6000000.00029
6000000.00041
5999999.99947
5999999.99994
6000000.00004
5999999.99974
6000000.00026
6000000.00002
5999999.99538
6000000.00095
6000000.0018
5999999.99708
6000000.00091
6000000.00692
5999999.99407
5999999.99692
6000000.00531
6000000.00859
5999999.99182
5999999.99477
6000000.00143
6000000.00395
5999999.99551
6000000.00326
6000000.00034
6000000.00483
5999999.99821
6000000.00715
6000000.00358
5999999.99096
6000000.00036
6000000.00662
5999999.9984
6000000.0054
5999999.99368
5999999.99833
6000000.00144
6000000.00337
6000000.00405
6000000.00053
6000000.00236
6000000.00083
5999999.99893
5999999.9993
5999999.99919
5999999.99991
5999999.99875
6000000.00061
5999999.99792
6000000.00208
5999999.9983
5999999.99961
5999999.99921
5999999.99965
5999999.99992
5999999.9998
6000000.00142
6000000.0016
5999999.99644
6000000.00035
6000000.00168
5999999.99994
6000000.00295
5999999.99522
5999999.99698
6000000.00509
6000000.00083
5999999.99628
5999999.99477
5999999.99968
5999999.99405
5999999.99842
5999999.99453
6000000.00174
6000000.00556
5999999.9959
6000000.00067
5999999.99914
6000000.00136
5999999.99941
5999999.99934
6000000.00161
5999999.99769
6000000.00213
6000000.00019
6000000.00003
6000000.00016
6000000.00001
6000000.00001
6000000.00002
6000000.00037
5999999.99884
6000000.00152
5999999.99708
5999999.9998
5999999.99826
6000000.00192
6000000.00629
5999999.99855
5999999.9931
6000000.00292
6000000.00708
5999999.99766
6000000.00351
5999999.99827
6000000.00712
5999999.99606
5999999.99658
5999999.99627
6000000.00181
6000000.00245
5999999.99507
6000000.0019
6000000.0011
5999999.99993
6000000.001
5999999.99837
6000000.00044
6000000.00079
5999999.99782
6000000.00259
6000000.00226
6000000.00093
6000000.00018
5999999.99969
5999999.99696
5999999.99737
6000000.00067
6000000.00103
5999999.99974
5999999.99828
5999999.99758
6000000.00079
5999999.99653
6000000.00079
5999999.9965
5999999.99414
5999999.99662
6000000.00367
5999999.99725
5999999.9963
6000000.0073
5999999.99877
6000000.00305
6000000.00001
5999999.99641
6000000.0039
5999999.99531
6000000.00381
5999999.99985
5999999.99939
6000000.00116
5999999.9997
6000000.00087
6000000.00009
6000000.00085
6000000.00165
5999999.99802
6000000.00304
6000000.00134
5999999.9972
6000000.00198
6000000.00009
5999999.99998
6000000.00389
5999999.99783
6000000.00394
6000000.0029
5999999.99389
5999999.99207
5999999.99543
5999999.99871
6000000.00123
6000000.00222
6000000.00314
5999999.99399
5999999.99151
6000000.00159
5999999.99593
5999999.99874
6000000.00513
5999999.99828
5999999.99877
6000000.00225
5999999.9965
5999999.99799
6000000.00655
5999999.99602
5999999.99918
5999999.99418
6000000.00204
6000000.00518
5999999.99962
5999999.99806
5999999.99137
6000000.0043
5999999.99907
6000000.00464
5999999.99884
5999999.99662
6000000.0031
5999999.99472
5999999.99364
6000000.00031
6000000.00285
5999999.99819
5999999.998
5999999.9977
6000000.00181
6000000.00192
5999999.99749
6000000.00204
5999999.99851
5999999.99937
6000000.00109
5999999.99909
5999999.99966
5999999.99995
6000000.00058
6000000.00131
5999999.9971
6000000.00155
6000000.00043
5999999.99952
5999999.99741
6000000.00175
6000000.00048
5999999.9989
6000000.00164
6000000.00134
5999999.99773
5999999.99942
6000000.00033
5999999.99933
5999999.99667
5999999.99694
5999999.99871
5999999.99548
6000000.00266
6000000.00205
6000000.00027
6000000.00052
5999999.99912
6000000.0031
5999999.99801
6000000.00305
6000000.00204
5999999.99547
6000000.00462
6000000.00135
6000000.00046
6000000.00075
5999999.99823
6000000.00214
6000000.00012
5999999.99908
6000000.00126
6000000.0001
5999999.99945
5999999.99724
6000000.00442
5999999.99666
5999999.99949
6000000.00177
5999999.99684
6000000.00376
5999999.99604
6000000.00265
5999999.999
5999999.99923
5999999.99702
6000000.00259
6000000.00634
5999999.99807
5999999.99799
6000000.00108
6000000.0027
5999999.99822
5999999.99728
6000000.00595
5999999.99809
5999999.99978
5999999.99966
6000000.00073
6000000.00313
5999999.99756
6000000.00445
5999999.99843
5999999.99862
6000000.00185
6000000.0003
5999999.99968
6000000.00334
6000000.00049
6000000.0029
5999999.99877
5999999.99901
5999999.9995
5999999.99748
5999999.99449
6000000.00272
6000000.00125
5999999.99852
5999999.99956
5999999.99877
6000000.00014
5999999.99825
6000000.00098
5999999.99893
6000000.00036
5999999.99955
5999999.9999
6000000.00022
5999999.99839
6000000.00083
6000000.00018
5999999.99987
5999999.99989
5999999.99981
6000000.00014
6000000.00026
5999999.9998
5999999.99989
5999999.99982
6000000.00002
5999999.99981
5999999.99992
5999999.9997
5999999.99949
6000000.00001
6000000
5999999.99981
5999999.99998
6000000.00004
5999999.99991
5999999.9986
6000000.00259
5999999.99822
5999999.99929
5999999.9991
5999999.99927
5999999.99997
5999999.99991
6000000.00001
5999999.9998
6000000.00141
6000000.00061
6000000.00008
6000000.00019
5999999.99938
5999999.99763
6000000.00271
6000000.00335
5999999.99863
5999999.99335
5999999.99296
6000000.00151
6000000.00615
6000000.00236
6000000.00409
5999999.99667
6000000.00456
5999999.99349
6000000.00103
5999999.99622
6000000.00038
5999999.99995
6000000.00304
5999999.99896
6000000.00188
5999999.99768
6000000.0017
5999999.99972
6000000.00003
6000000.00026
6000000.00033
6000000.00003
5999999.99979
6000000.00289
5999999.99977
6000000.00001
6000000.00002
5999999.99992
5999999.99989
6000000.00005
6000000.00051
5999999.99897
5999999.99891
5999999.99899
5999999.99921
5999999.99985
5999999.99856
5999999.99677
6000000.00174
6000000.00078
6000000.00082
6000000.0022
5999999.99753
5999999.99727
6000000.00764
6000000.00345
6000000.00135
6000000.00323
5999999.99723
5999999.99889
6000000.00099
5999999.99924
6000000.00081
6000000.00013
6000000.00055
6000000.00048
6000000.00238
5999999.99947
5999999.99795
6000000.00045
5999999.99964
5999999.99981
6000000.00494
5999999.99936
5999999.99777
6000000.0031
6000000.00171
6000000.00047
6000000.00099
5999999.99661
5999999.99775
6000000.00481
6000000.00535
6000000.00272
5999999.99693
5999999.99767
6000000.00295
5999999.99987
5999999.99815
5999999.99698
6000000.0039
6000000.00294
5999999.99982
6000000.0018
5999999.99799
6000000.00131
5999999.9995
6000000.00068
6000000.00074
6000000.00051
6000000.00108
5999999.99946
5999999.99902
6000000.00148
6000000.00118
5999999.99378
5999999.99456
6000000.00355
6000000.001
5999999.99938
5999999.99844
6000000.00302
5999999.99717
6000000.00083
6000000.00148
6000000.00285
5999999.9932
6000000.00285
6000000.00169
6000000.00508
5999999.99542
5999999.99771
6000000.00148
6000000.00063
5999999.99466
5999999.99797
6000000.00465
6000000.00585
5999999.99923
6000000.0018
6000000.00128
6000000.00439
5999999.99721
6000000.00139
6000000.00175
5999999.99557
6000000.00329
6000000.00314
6000000.00565
6000000.00879
5999999.99528
5999999.9979
6000000.00393
6000000.00704
5999999.99435
5999999.9947
6000000.00253
5999999.99782
6000000
6000000.00068
5999999.99623
6000000.00199
5999999.99709
6000000.00063
5999999.99622
5999999.9942
6000000.00376
6000000.00335
5999999.99855
6000000.00331
6000000.00138
6000000.0002
5999999.99972
5999999.99875
5999999.99735
6000000.00388
6000000.00764
5999999.99644
5999999.99862
5999999.99223
6000000.00501
6000000.00637
5999999.99563
5999999.99735
5999999.99578
5999999.99736
5999999.99637
6000000.00085
5999999.99918
6000000.00163
5999999.99907
5999999.9997
6000000.00327
5999999.99445
5999999.99453
5999999.99632
6000000.00678
6000000.00019
5999999.99872
6000000.00094
5999999.99972
6000000.00257
5999999.99914
6000000.00159
6000000.0061
5999999.9962
5999999.99432
5999999.99276
6000000.00292
6000000.00268
5999999.99184
5999999.99676
5999999.99674
6000000.00141
5999999.99861
5999999.99327
6000000.00408
6000000.00445
5999999.99993
6000000.0009
5999999.99999
6000000.00052
6000000.00073
6000000.00043
6000000.00002
5999999.99998
5999999.99991
5999999.99988
6000000.00015
6000000.00027
5999999.99852
6000000.00204
6000000.00631
6000000.00004
6000000.00089
6000000.00273
5999999.99924
6000000.00332
6000000.00117
5999999.99987
5999999.99989
5999999.99986
6000000.00152
5999999.99759
5999999.99717
6000000.00112
5999999.9963
6000000.00103
5999999.99873
5999999.99954
5999999.99933
5999999.99991
5999999.99984
6000000.00007
6000000.0003
5999999.99772
6000000.0033
5999999.9986
5999999.99908
5999999.99992
5999999.99766
6000000.00101
6000000.00107
6000000.0001
6000000.0004
5999999.99888
6000000.00373
5999999.99989
6000000.00003
6000000.00052
5999999.99951
6000000.00042
5999999.99778
6000000.00572
6000000.0034
5999999.9951
5999999.99832
6000000.00227
5999999.99801
6000000.00353
5999999.99901
5999999.99994
6000000.00005
5999999.99957
6000000.00025
5999999.99923
6000000.00093
5999999.99711
6000000.00195
6000000.00101
6000000.00095
5999999.99974
6000000.00019
5999999.99689
6000000.00722
6000000.00346
5999999.99377
6000000.00145
6000000.003
6000000.00453
5999999.99616
5999999.99513
6000000.00388
5999999.99866
5999999.99946
6000000.0002
5999999.99993
5999999.99992
5999999.99996
6000000.00002
5999999.99989
5999999.99993
5999999.99988
6000000.00021
5999999.99843
6000000.0024
5999999.99725
5999999.9996
6000000.00129
5999999.99321
6000000.00527
6000000.00532
6000000.00173
5999999.99923
6000000.00339
6000000.00529
5999999.99675
5999999.99551
6000000.0032
5999999.99917
6000000.00336
6000000.00541
6000000.00055
6000000.006
6000000.00008
5999999.99978
6000000.00087
6000000.00069
5999999.99986
6000000.00005
6000000.00351
5999999.99805
6000000.0008
6000000.00185
6000000.00322
6000000.00279
5999999.99434
6000000.00183
6000000.00061
6000000.0007
5999999.99905
6000000.00528
6000000.00337
5999999.99777
6000000.00284
6000000.00027
5999999.99927
6000000.00066
5999999.99926
6000000.00221
5999999.99328
6000000.00273
6000000.00161
6000000.00003
5999999.9989
6000000.00014
6000000.00108
5999999.9998
6000000.00002
6000000.00002
6000000
6000000.00001
5999999.99989
6000000.00001
5999999.99981
6000000
6000000.00025
5999999.99906
6000000.00151
5999999.99968
5999999.99979
5999999.99973
6000000.00021
5999999.99834
6000000.00057
6000000.00039
6000000.0007
5999999.99774
5999999.99805
6000000.0011
6000000.0017
5999999.99862
6000000.00098
5999999.9983
6000000.00289
6000000.00246
6000000.00046
6000000.00031
5999999.99953
5999999.99893
6000000.00228
5999999.99522
6000000.00665
5999999.99675
5999999.99464
6000000.00391
6000000.0045
6000000.00528
5999999.99996
6000000.00021
5999999.99477
5999999.99518
5999999.99541
6000000.00179
5999999.99771
6000000.0052
5999999.99924
5999999.9975
6000000.0007
5999999.99738
6000000.00193
5999999.99803
6000000.00499
5999999.99295
5999999.99554
6000000.00439
5999999.99501
5999999.9968
5999999.9982
6000000.0018
6000000.00163
6000000.00117
6000000.00002
6000000.00105
6000000.00057
6000000.00249
5999999.99632
6000000.00207
6000000.00117
5999999.99977
5999999.9981
5999999.99991
5999999.99995
5999999.99815
5999999.99885
6000000.00134
5999999.99994
6000000.00151
6000000.00208
5999999.99746
5999999.99894
6000000.00449
5999999.99924
5999999.99976
5999999.99991
6000000.00001
6000000.00001
6000000.00014
6000000.00003
5999999.99987
6000000.00058
6000000.00016
5999999.99629
6000000.00082
5999999.99966
5999999.99986
5999999.99998
6000000.00035
5999999.99801
6000000.00345
6000000.00197
5999999.99509
6000000.0067
5999999.99384
5999999.99286
6000000.00277
6000000.00562
5999999.99179
5999999.99758
5999999.99727
5999999.99934
6000000.00165
5999999.99792
6000000.00114
5999999.99619
5999999.99707
6000000.00041
5999999.99756
6000000.00319
5999999.99793
6000000.00169
6000000.00304
5999999.99534
5999999.99541
5999999.99436
5999999.99944
6000000.0048
6000000.00203
5999999.99612
5999999.99303
6000000.00421
6000000.00313
5999999.99375
5999999.99896
6000000.00593
6000000.00438
5999999.99768
5999999.99789
6000000.00428
5999999.99966
6000000.00002
6000000.00001
5999999.99991
6000000.00085
6000000.0015
5999999.99847
5999999.99817
5999999.99873
6000000.00031
6000000.00163
5999999.99958
6000000.00064
5999999.99833
5999999.99774
6000000.00148
6000000.00053
6000000.00022
6000000.00002
6000000.00001
5999999.99992
5999999.99995
6000000.0003
5999999.99918
5999999.99875
6000000.00017
6000000.0025
5999999.99789
5999999.9999
6000000
5999999.99469
6000000.00054
6000000.00051
6000000.00425
6000000.00171
5999999.99951
6000000.00133
6000000.00047
5999999.9978
6000000.00318
5999999.99666
6000000.00298
6000000.0009
6000000.0047
5999999.99926
5999999.99971
6000000.00594
6000000.00239
6000000.0035
6000000.00205
5999999.99634
5999999.99882
6000000.00281
5999999.99968
5999999.99722
5999999.99725
6000000.00237
5999999.9974
5999999.99907
5999999.99692
6000000.00029
6000000.00223
5999999.99846
5999999.99858
5999999.9988
5999999.99978
5999999.99978
6000000.00134
6000000.00048
6000000.00062
5999999.99908
6000000.00156
6000000.00159
5999999.99814
5999999.99997
6000000.00011
6000000.00002
6000000.00011
6000000.00003
6000000.00097
6000000.00116
5999999.99814
6000000.00267
6000000.00181
5999999.99638
6000000.00487
5999999.99507
5999999.9981
6000000.00266
6000000.0066
6000000.00307
6000000.00239
6000000.00164
5999999.99226
5999999.99732
5999999.99857
5999999.9991
6000000.00356
6000000.00494
5999999.99331
5999999.99697
5999999.99473
6000000.00592
6000000.00272
6000000.00295
5999999.99875
6000000.00088
6000000.00075
6000000.00186
5999999.99955
5999999.99908
5999999.99973
6000000.00003
5999999.99993
6000000.00082
5999999.9992
6000000.00103
5999999.9997
6000000.00001
5999999.99869
5999999.99632
6000000.00358
6000000.00108
5999999.99591
5999999.99493
6000000.00577
5999999.99832
5999999.9957
6000000.00171
6000000.00638
5999999.99523
6000000.00439
5999999.99884
5999999.99805
6000000.00544
5999999.99936
6000000.00015
5999999.99998
6000000
6000000.00007
6000000.00001
6000000.00007
6000000.00002
6000000.00007
6000000.0002
6000000.00025
6000000.00003
6000000.00012
5999999.99941
6000000.001
6000000.00148
5999999.99514
6000000.00333
6000000.00509
5999999.99857
6000000.00179
6000000.00228
6000000.00224
5999999.99924
6000000.00038
5999999.99374
6000000.00119
5999999.99937
6000000.00137
6000000.00273
5999999.99904
5999999.99875
5999999.99928
5999999.99892
6000000.00024
5999999.99857
6000000.00122
6000000.00193
5999999.99835
5999999.99941
5999999.99888
6000000.00121
5999999.99978
5999999.99999
5999999.99998
5999999.99933
6000000.00075
5999999.99915
5999999.99794
6000000.00355
5999999.99654
6000000.00162
5999999.99898
5999999.99935
5999999.99981
5999999.9992
6000000.00197
5999999.9954
6000000.00202
5999999.99941
5999999.99927
6000000.00002
5999999.99944
5999999.99987
5999999.99967
6000000.00102
5999999.99858
5999999.99944
5999999.99995
5999999.99993
5999999.99992
5999999.99998
6000000.00009
5999999.99993
5999999.99974
6000000
5999999.99991
5999999.9999
6000000.00001
5999999.99951
6000000.00163
5999999.99959
6000000.00015
6000000.00012
6000000.00135
5999999.99821
6000000.00161
5999999.99641
6000000.0025
6000000.00161
6000000.00203
6000000.00239
5999999.9969
5999999.99939
5999999.99814
6000000.00236
5999999.9991
5999999.9979
6000000.00149
5999999.99835
5999999.9992
5999999.99966
6000000.00017
6000000.00408
6000000.00179
6000000.00334
5999999.99905
6000000.0003
6000000.00238
5999999.99497
6000000.00088
5999999.99647
6000000.00514
6000000.00208
5999999.99433
5999999.9953
5999999.99526
6000000.00577
6000000.00193
6000000.00591
5999999.99698
5999999.9978
6000000.00082
5999999.99499
5999999.99442
5999999.99701
5999999.99821
6000000.0021
5999999.99502
5999999.99692
5999999.99329
6000000.00029
5999999.9951
5999999.99797
5999999.99676
5999999.99667
5999999.9954
5999999.99477
6000000.00397
6000000.00123
6000000.00127
5999999.99436
6000000.00222
5999999.99975
6000000.00011
6000000.001
5999999.9988
6000000.00022
5999999.9961
6000000.00318
5999999.99455
5999999.99476
6000000.00225
5999999.99431
5999999.99514
6000000.00607
5999999.9953
5999999.99389
6000000.00097
6000000.00191
5999999.99953
6000000.00125
6000000.00046
6000000.00028
5999999.99996
6000000.00063
5999999.99952
6000000.00051
5999999.99922
6000000.00016
6000000.00018
5999999.99992
5999999.99993
6000000
6000000.00142
5999999.99964
5999999.99961
6000000.00127
6000000.00005
5999999.99965
5999999.99974
5999999.99948
5999999.99905
6000000.00026
6000000.00004
6000000.00034
5999999.99966
5999999.99923
6000000.00059
6000000.00193
5999999.99841
6000000.00092
6000000.00272
6000000.00259
5999999.99628
5999999.99748
6000000.00305
5999999.99941
6000000.0013
6000000.0006
5999999.99685
6000000.00281
6000000.00228
6000000.00016
5999999.99856
6000000.00005
5999999.99823
6000000.00337
6000000.00033
6000000.00118
5999999.99879
5999999.99774
6000000.00608
6000000.0057
5999999.99313
5999999.9973
6000000.00184
6000000.0015
5999999.99882
6000000.00124
5999999.99995
6000000.00324
5999999.99918
6000000.00225
5999999.99967
5999999.99961
6000000
6000000.00004
5999999.99997
5999999.99998
5999999.99998
6000000.00001
6000000.00004
6000000.00014
6000000
6000000
6000000.00001
5999999.99998
6000000.0002
5999999.99994
6000000.00001
5999999.99993
5999999.99996
6000000.00021
6000000.00022
5999999.99995
6000000.00014
5999999.99999
6000000
5999999.99977
6000000.0003
5999999.99995
6000000.00025
5999999.99952
5999999.99936
5999999.99925
6000000.0004
5999999.99978
6000000.00255
5999999.99944
5999999.99968
5999999.99976
6000000.0001
6000000.00003
6000000.00013
5999999.99993
6000000.00001
6000000
6000000.00006
5999999.9991
6000000.00063
5999999.99885
6000000.00331
5999999.99949
5999999.99884
6000000.0015
5999999.99885
6000000.0036
6000000.00376
5999999.99874
5999999.99978
6000000.00629
6000000.00086
6000000.0007
6000000.00086
5999999.9997
6000000.00004
6000000.00007
6000000.00026
6000000.00008
6000000.00006
6000000.00024
5999999.99917
6000000.00116
6000000.00062
6000000.00042
6000000.00024
5999999.99954
6000000
5999999.99992
6000000.00002
5999999.99996
6000000.00093
5999999.99873
5999999.99742
6000000.00263
5999999.99788
6000000.00243
5999999.99657
5999999.99911
5999999.9998
5999999.99713
5999999.99971
6000000.00379
5999999.99528
5999999.99401
6000000.00175
5999999.99344
5999999.99365
6000000.00113
5999999.99717
5999999.9988
5999999.99588
6000000.00229
6000000.0022
5999999.99682
6000000.00443
5999999.99792
5999999.99787
6000000.00237
6000000.00236
5999999.99966
5999999.99933
5999999.99968
6000000.00007
5999999.99986
5999999.99942
6000000.00172
5999999.99945
6000000.0019
5999999.99857
5999999.99824
6000000.00013
5999999.99886
5999999.99944
5999999.9982
5999999.99874
5999999.99877
5999999.99989
5999999.9987
6000000.00387
5999999.99949
5999999.99801
5999999.99981
5999999.99999
5999999.99996
5999999.99983
5999999.99984
6000000.00022
5999999.99998
5999999.99996
6000000.00014
6000000.00011
5999999.99998
6000000.00007
5999999.99998
6000000.00018
6000000.0005
6000000.00052
5999999.99774
5999999.99824
6000000.00111
6000000.00015
5999999.99998
5999999.99997
6000000.00001
5999999.99989
5999999.99974
6000000.00009
5999999.99998
5999999.99909
6000000.00069
5999999.99965
6000000.00135
5999999.99915
6000000.00018
6000000.00174
5999999.99944
6000000.00037
5999999.99953
6000000.00006
5999999.99991
5999999.99999
5999999.99983
5999999.99991
5999999.99998
5999999.99946
5999999.99863
6000000.00021
5999999.99907
6000000.0024
5999999.9981
6000000.00088
6000000.00049
5999999.99986
6000000.0003
6000000.00118
5999999.99918
5999999.99593
6000000.00346
6000000.00018
6000000.00013
6000000.00066
6000000.00176
6000000.00049
5999999.9975
6000000.00401
6000000.00315
5999999.99991
5999999.99807
6000000.00225
6000000.00166
5999999.99872
6000000.005
6000000.00033
6000000.00248
5999999.99692
5999999.99755
6000000.00117
5999999.99918
5999999.99978
5999999.99696
6000000.00383
6000000.00096
5999999.99888
6000000.00028
5999999.99844
6000000.0032
5999999.9984
6000000.0017
5999999.99488
6000000.00603
6000000.00468
5999999.99816
6000000.00114
5999999.99318
5999999.99258
6000000.00334
6000000.00251
6000000.00461
5999999.99822
5999999.99548
6000000.00427
5999999.99626
5999999.99876
5999999.99887
5999999.99823
6000000.001
5999999.99924
6000000.00017
5999999.99976
5999999.99951
6000000.00032
5999999.99786
6000000.00189
5999999.99963
5999999.999
6000000.0023
5999999.99815
6000000.00124
5999999.99623
6000000.00027
5999999.99998
5999999.99964
5999999.99843
5999999.99845
6000000.00153
6000000.00158
5999999.99927
6000000.00682
6000000.00252
5999999.99441
6000000.00295
5999999.99859
6000000.00686
6000000.00504
5999999.99739
5999999.99583
5999999.99881
6000000.00646
6000000.00196
5999999.99721
5999999.9962
5999999.99539
6000000.00289
5999999.99686
5999999.99494
5999999.99817
5999999.99473
6000000.00407
5999999.9973
5999999.99678
5999999.99869
6000000.00173
5999999.99762
5999999.99754
6000000.00141
6000000.00121
5999999.99644
5999999.9976
5999999.99568
5999999.9958
5999999.99725
5999999.99848
6000000.00082
5999999.99311
5999999.99425
6000000.00166
6000000.00036
5999999.99533
5999999.99594
5999999.99504
5999999.99389
6000000.00423
5999999.99704
5999999.99226
6000000.00005
5999999.99586
6000000.00218
6000000.00519
5999999.99259
5999999.99451
5999999.99762
6000000.00546
6000000.00092
5999999.99779
6000000.00322
6000000.00543
5999999.99978
6000000.00603
5999999.99623
5999999.99364
6000000.00369
6000000.00075
5999999.99949
5999999.99465
5999999.99646
6000000.00271
5999999.99602
5999999.9984
6000000.00208
5999999.99892
6000000.00298
6000000.00711
6000000.0032
5999999.99849
5999999.99527
5999999.99724
6000000.0058
6000000.00223
5999999.99562
5999999.99719
6000000.00086
6000000.0062
6000000.00097
5999999.99893
5999999.99977
6000000.00158
5999999.99859
5999999.9991
6000000.00348
6000000.00173
5999999.99696
6000000.00266
5999999.99668
5999999.99961
5999999.99737
6000000.00047
6000000.00207
5999999.99414
5999999.99999
6000000.0011
5999999.99415
5999999.99745
6000000.00293
5999999.99812
5999999.99811
6000000.00257
5999999.99837
5999999.9966
5999999.99563
5999999.99806
5999999.99587
5999999.99932
5999999.99796
6000000.00681
5999999.99766
6000000.00036
6000000.00529
5999999.99854
6000000.00153
5999999.99996
6000000.00853
5999999.99713
6000000.00079
6000000.00632
6000000.00685
5999999.99893
5999999.99801
6000000.01001
6000000.00778
6000000.00612
5999999.99805
5999999.998
6000000.00802
6000000.00841
6000000.00181
6000000.00672
6000000.00232
5999999.99502
6000000.00676
6000000.00786
6000000.00016
5999999.99728
6000000.00747
6000000.00259
5999999.99404
6000000.00242
6000000.00218
6000000.00911
6000000.00772
5999999.99763
6000000.0023
6000000.00715
5999999.99616
5999999.99946
6000000.00647
6000000.00922
6000000.00052
6000000.00634
6000000.00555
6000000.00491
5999999.99798
6000000.00126
6000000.00841
6000000.00953
6000000.01008
6000000.00301
6000000.00296
6000000.00642
6000000.0103
5999999.99967
6000000.00292
6000000.00577
5999999.99658
6000000.00574
6000000.00521
6000000.00986
6000000.0042
6000000.00742
6000000.00573
5999999.99355
6000000.00684
6000000.00215
5999999.99853
6000000.00877
5999999.99877
5999999.99982
5999999.99861
6000000.0004
5999999.99832
5999999.99961
5999999.99895
5999999.99949
5999999.99928
5999999.9995
5999999.99722
5999999.99773
5999999.99953
5999999.99813
6000000.00023
5999999.99822
5999999.99871
5999999.99827
6000000.00015
5999999.99794
5999999.99747
5999999.99851
5999999.99967
5999999.99854
5999999.99862
5999999.99956
5999999.99748
5999999.99847
5999999.99929
5999999.99575
5999999.99836
6000000.00022
5999999.99914
5999999.99672
5999999.99938
5999999.99746
5999999.99989
5999999.99889
5999999.99868
5999999.99677
5999999.99902
6000000.00003
5999999.99783
5999999.99941
5999999.99961
5999999.9987
5999999.99881
5999999.99915
5999999.99664
5999999.99685
5999999.99938
5999999.99992
6000000.00019
6000000.00056
5999999.99833
5999999.99899
5999999.9979
5999999.99828
5999999.99829
5999999.99872
5999999.99958
6000000.00041
6000000.00208
5999999.99834
5999999.99933
5999999.99942
5999999.99986
5999999.99971
6000000.00069
5999999.9998
5999999.99951
6000000.00032
5999999.99971
5999999.99969
5999999.99971
5999999.99977
6000000.0005
6000000.00005
5999999.99978
5999999.99962
6000000.00029
6000000.00036
5999999.99982
6000000.00031
5999999.9999
6000000.00036
5999999.99989
5999999.99984
6000000.00025
6000000
6000000.00042
5999999.99991
6000000.00008
5999999.99952
6000000.00032
6000000.00046
6000000.00024
6000000.00052
6000000
6000000.00054
6000000.0005
5999999.99976
6000000.00012
5999999.9999
6000000.00031
6000000.0001
5999999.99978
6000000.00074
6000000.00028
6000000.0005
6000000.00028
5999999.99959
5999999.99983
5999999.99972
6000000.00014
6000000.00005
6000000.00038
6000000.00043
5999999.99968
6000000.00004
6000000.00025
6000000.00004
6000000.00031
6000000.00015
6000000.00025
6000000.00041
5999999.99971
6000000.00048
6000000.0007
6000000.00099
6000000.00091
6000000.00108
6000000.00059
6000000.00101
6000000.00084
6000000.00119
6000000.00081
6000000.00079
6000000.00085
6000000.00088
6000000.00083
6000000.00081
6000000.0009
6000000.00096
6000000.00076
6000000.00092
6000000.0011
6000000.00088
6000000.00108
6000000.00116
6000000.00071
6000000.00102
6000000.00095
6000000.00089
6000000.00073
6000000.00057
6000000.001
6000000.00088
6000000.00087
6000000.00086
6000000.00086
6000000.00115
6000000.00075
6000000.00092
6000000.00071
6000000.00081
6000000.00062
6000000.00085
6000000.001
6000000.00105
6000000.00097
6000000.00092
6000000.00091
6000000.00092
6000000.00077
6000000.00102
6000000.00119
6000000.00124
6000000.00076
6000000.00087
6000000.0008
6000000.00096
6000000.00095
6000000.00094
6000000.00098
6000000.00101
6000000.00097
6000000.001
6000000.00089
6000000.00119
6000000.00133
6000000.00086
5999999.99902
5999999.99872
5999999.99882
5999999.99901
5999999.99876
5999999.99919
5999999.99884
5999999.9988
5999999.99871
5999999.99874
5999999.99886
5999999.99901
5999999.99903
5999999.99884
5999999.99862
5999999.99878
5999999.99878
5999999.99899
5999999.9989
5999999.99905
5999999.99878
5999999.99878
5999999.99914
5999999.99898
5999999.99875
5999999.99892
5999999.99934
5999999.99876
5999999.99896
5999999.99908
5999999.999
5999999.99942
5999999.99911
5999999.99909
5999999.99891
5999999.99891
5999999.99913
5999999.99869
5999999.99862
5999999.99871
5999999.99906
5999999.99908
5999999.99885
5999999.99901
5999999.99895
5999999.99897
5999999.99928
5999999.99904
5999999.99882
5999999.99899
5999999.99888
5999999.99868
5999999.99884
5999999.99866
5999999.99892
5999999.99888
5999999.99898
5999999.99899
5999999.9989
5999999.99889
5999999.99885
5999999.99903
5999999.99881
5999999.9989
5999999.99947
5999999.99931
5999999.99947
5999999.99978
5999999.99966