/*--------------------------------*- C++ -*----------------------------------*\
  =========                 |
  \\      /  F ield         | OpenFOAM: The Open Source CFD Toolbox
   \\    /   O peration     | Website:  https://openfoam.org
    \\  /    A nd           | Version:  6
     \\/     M anipulation  |
\*---------------------------------------------------------------------------*/
FoamFile
{
    version     2.0;
    format      ascii;
    class       volVectorField;
    location    "4.85e-05";
    object      U;
}
// * * * * * * * * * * * * * * * * * * * * * * * * * * * * * * * * * * * * * //

dimensions      [0 1 -1 0 0 0 0];

internalField   nonuniform List<vector> 
8192
(
(-88.322 0 -2.84375675204e-10)
(-88.3219999996 0 -8.54160953337e-11)
(-88.3220000002 0 -7.05133161379e-11)
(-88.3220000004 0 -2.84999620471e-10)
(-88.3219999995 0 -6.43977721876e-11)
(-88.3219999997 0 3.76008478096e-12)
(-88.3220000003 0 -2.04221070171e-12)
(-88.322 0 1.1792262268e-10)
(-88.322 0 -2.71416724365e-10)
(-88.322 0 -5.83693645741e-10)
(-88.3219999999 0 -7.31024762465e-10)
(-88.322 0 3.72359623954e-10)
(-88.3220000002 0 6.68753351837e-10)
(-88.3220000001 0 -7.68986671423e-10)
(-88.3219999998 0 -6.28984976663e-10)
(-88.3219999999 0 3.68589883709e-10)
(-88.3219999998 0 3.16350696777e-10)
(-88.3219999999 0 6.80261498156e-10)
(-88.3220000002 0 -4.26296626828e-10)
(-88.322 0 -5.84715711468e-10)
(-88.3219999996 0 2.62546548893e-10)
(-88.3220000004 0 3.89883386273e-10)
(-88.3220000003 0 -6.25395823162e-10)
(-88.3219999998 0 -5.78352163587e-10)
(-88.322 0 1.77790102045e-10)
(-88.3219999999 0 1.88319373648e-10)
(-88.3219999999 0 2.35825167368e-10)
(-88.3219999999 0 1.97961782839e-10)
(-88.3220000002 0 3.1860849691e-10)
(-88.3220000002 0 -1.64923247534e-10)
(-88.322 0 2.22073093815e-10)
(-88.3219999996 0 -6.10453380953e-11)
(-88.3219999989 0 1.29071490197e-10)
(-88.3220000019 0 5.55628964636e-10)
(-88.3220000027 0 -8.68578840769e-10)
(-88.3219999987 0 -6.41022889755e-10)
(-88.3219999995 0 -1.16945997022e-11)
(-88.3219999996 0 -5.71919463969e-10)
(-88.3219999985 0 1.69587919404e-10)
(-88.3220000006 0 1.80870952465e-10)
(-88.3220000001 0 -6.23644526167e-11)
(-88.3219999998 0 6.71045926283e-11)
(-88.3220000002 0 -1.45117619628e-11)
(-88.322 0 -1.53007110939e-11)
(-88.322 0 -5.92421653923e-11)
(-88.322 0 -3.87640470088e-11)
(-88.322 0 -2.01265619593e-11)
(-88.322 0 -1.95710185826e-11)
(-88.3220000001 0 3.02861208496e-11)
(-88.3219999998 0 -9.86285043249e-11)
(-88.3219999999 0 1.33448606521e-10)
(-88.3220000006 0 -6.56966216571e-11)
(-88.3219999994 0 -2.15233662816e-10)
(-88.3219999993 0 3.5408514669e-10)
(-88.3220000012 0 1.94403017229e-10)
(-88.3220000006 0 -2.06902898414e-10)
(-88.322 0 -3.00939835628e-11)
(-88.3219999998 0 -1.77423938784e-10)
(-88.3220000002 0 -4.39264736216e-11)
(-88.3219999991 0 -3.14075625978e-10)
(-88.3219999984 0 3.47532122901e-10)
(-88.3219999998 0 3.9883516027e-10)
(-88.3220000009 0 3.63933566912e-10)
(-88.3220000014 0 -3.57412067206e-11)
(-88.3220000001 0 -3.42582927055e-10)
(-88.3219999998 0 -9.13876598185e-11)
(-88.3220000002 0 1.34838578718e-10)
(-88.3219999996 0 1.62234389454e-11)
(-88.322 0 2.6412421427e-10)
(-88.3220000002 0 -1.2108413557e-10)
(-88.3219999995 0 5.39813913435e-11)
(-88.3220000006 0 4.30707708624e-12)
(-88.3220000013 0 -8.53576456834e-12)
(-88.3220000008 0 -6.42788148403e-11)
(-88.3219999982 0 7.15313181787e-11)
(-88.3219999972 0 -2.5146474495e-10)
(-88.322000002 0 -2.54781579138e-11)
(-88.3220000025 0 -1.88534358036e-10)
(-88.3219999979 0 -3.20729956769e-10)
(-88.3219999982 0 3.1598458809e-10)
(-88.3219999996 0 2.39828550488e-10)
(-88.3220000017 0 1.50738389388e-10)
(-88.3220000023 0 -3.46558128701e-10)
(-88.3219999988 0 -1.97295746801e-10)
(-88.3219999984 0 -6.21260061922e-11)
(-88.3220000014 0 -2.04330600512e-11)
(-88.3220000016 0 2.11563726487e-10)
(-88.3219999987 0 -6.99391991599e-11)
(-88.3219999985 0 4.51780378972e-10)
(-88.322 0 -1.92302359607e-10)
(-88.3220000001 0 3.14003959461e-10)
(-88.3219999999 0 3.01969852387e-10)
(-88.3220000006 0 -7.8096017003e-11)
(-88.322 0 7.19150400487e-12)
(-88.3219999998 0 8.13705525731e-11)
(-88.3220000005 0 2.52889163072e-11)
(-88.3219999998 0 -2.40847195019e-10)
(-88.3220000003 0 -4.71322665176e-10)
(-88.322 0 5.78312953537e-10)
(-88.3219999995 0 6.55734537471e-10)
(-88.3220000002 0 7.11018174175e-12)
(-88.322 0 3.09894234125e-10)
(-88.322 0 -1.68168891423e-10)
(-88.322 0 -2.29788461479e-10)
(-88.322 0 1.66648173093e-10)
(-88.322 0 -9.39227252669e-11)
(-88.322 0 7.63990321081e-11)
(-88.322 0 -2.09160748323e-10)
(-88.322 0 -4.0119942231e-10)
(-88.322 0 -3.44972383768e-10)
(-88.322 0 -3.34847993072e-10)
(-88.322 0 -4.11974018775e-10)
(-88.322 0 -3.80952831544e-10)
(-88.322 0 -8.15969924751e-11)
(-88.322 0 3.11136413657e-10)
(-88.3220000001 0 -9.56042617388e-11)
(-88.3219999998 0 6.16013780113e-11)
(-88.322 0 -1.10107623088e-10)
(-88.3220000001 0 -2.95088090871e-10)
(-88.3219999999 0 4.17212398309e-10)
(-88.322 0 -1.84518087208e-10)
(-88.3220000001 0 -1.59908669009e-10)
(-88.322 0 -3.83507113356e-10)
(-88.3219999999 0 9.1897191474e-10)
(-88.322 0 3.47271073636e-10)
(-88.3220000001 0 -8.16060965894e-10)
(-88.3220000002 0 -1.11545639533e-09)
(-88.322 0 -4.52980767229e-10)
(-88.3219999993 0 8.00891287957e-11)
(-88.3219999988 0 1.10712535665e-10)
(-88.322 0 -3.36827058218e-11)
(-88.3220000001 0 2.06070875698e-10)
(-88.3219999999 0 -1.68101089294e-10)
(-88.3220000001 0 1.53076749237e-10)
(-88.322 0 -4.70313222194e-11)
(-88.322 0 -1.12197383287e-10)
(-88.3220000002 0 2.41064353672e-10)
(-88.3219999998 0 5.43404342577e-10)
(-88.3220000003 0 6.9042372661e-10)
(-88.3220000002 0 -2.57988637587e-10)
(-88.322 0 -5.68815627174e-10)
(-88.3220000006 0 5.45855102194e-10)
(-88.3219999988 0 5.64772331308e-10)
(-88.3219999987 0 -3.90337621608e-10)
(-88.3220000001 0 -3.22385982961e-10)
(-88.322000001 0 -6.09131958375e-10)
(-88.3220000009 0 4.59803913881e-10)
(-88.3219999994 0 5.40618513007e-10)
(-88.3219999993 0 -2.21740466293e-10)
(-88.3219999998 0 -2.13030860365e-10)
(-88.3220000004 0 5.91777635178e-10)
(-88.3219999994 0 5.74882623562e-10)
(-88.3220000003 0 -9.37564055784e-11)
(-88.3220000001 0 -1.73881824601e-10)
(-88.3219999989 0 -9.59964664507e-11)
(-88.3220000008 0 1.05025458382e-10)
(-88.3220000008 0 -9.24744642279e-11)
(-88.3219999999 0 6.11852684645e-11)
(-88.3219999999 0 8.62748516639e-11)
(-88.3220000004 0 -3.74410396832e-12)
(-88.322 0 -4.87279283441e-10)
(-88.322 0 4.61838619e-10)
(-88.3220000002 0 6.53112697148e-10)
(-88.322 0 -4.33238212441e-10)
(-88.3220000003 0 -7.24303185831e-10)
(-88.322 0 8.54391175198e-10)
(-88.3219999997 0 4.27310523796e-10)
(-88.3219999999 0 -3.66324783686e-10)
(-88.322 0 -4.60285906864e-10)
(-88.322 0 2.04666575936e-10)
(-88.3220000004 0 -2.90879318125e-10)
(-88.3220000011 0 -6.83293648674e-11)
(-88.3220000003 0 -3.63833440421e-10)
(-88.3219999998 0 6.25045373017e-11)
(-88.3220000001 0 -6.29781295499e-10)
(-88.3219999999 0 -6.01395119359e-10)
(-88.3219999994 0 5.29967977605e-10)
(-88.3219999985 0 2.48266058328e-11)
(-88.322 0 -4.24668963978e-10)
(-88.3220000011 0 1.84349602958e-10)
(-88.3219999994 0 -4.58854108499e-10)
(-88.3219999999 0 4.26528152941e-10)
(-88.322 0 8.48466499852e-11)
(-88.3220000004 0 -3.56442596157e-10)
(-88.3220000012 0 -3.91871820741e-10)
(-88.3220000003 0 -4.1724094231e-10)
(-88.3219999981 0 -1.69588104865e-10)
(-88.3219999978 0 -2.03877021681e-10)
(-88.3220000019 0 -1.63929706043e-10)
(-88.3220000028 0 8.75975864891e-11)
(-88.3220000001 0 6.08988256793e-11)
(-88.3219999999 0 8.42115179943e-11)
(-88.322 0 6.53676838229e-10)
(-88.3220000001 0 1.95795107882e-10)
(-88.322 0 -6.42432672556e-11)
(-88.322 0 1.68606337011e-10)
(-88.322 0 -2.05906421536e-10)
(-88.322 0 4.24731541294e-11)
(-88.322 0 1.53452663e-11)
(-88.322 0 3.92378000939e-11)
(-88.322 0 3.37787768176e-11)
(-88.322 0 9.94103586928e-11)
(-88.3219999998 0 -3.69525483098e-11)
(-88.3219999997 0 1.72774610893e-10)
(-88.3220000005 0 -1.73684963464e-11)
(-88.3220000002 0 4.20928153335e-10)
(-88.3219999998 0 3.60203502011e-10)
(-88.322 0 -3.06317189619e-10)
(-88.322 0 -2.29532558551e-10)
(-88.322 0 -3.04983859037e-10)
(-88.322 0 5.2514524674e-10)
(-88.322 0 4.63133668067e-10)
(-88.322 0 -5.25127931191e-10)
(-88.3219999999 0 -5.06491621576e-10)
(-88.322 0 3.29819409259e-10)
(-88.322 0 5.29422900321e-10)
(-88.322 0 -2.17165530003e-10)
(-88.322 0 5.91853967022e-10)
(-88.3219999995 0 -1.95940875058e-10)
(-88.3219999999 0 5.25208035771e-11)
(-88.3220000006 0 -1.02986499698e-10)
(-88.3219999996 0 -2.86610368239e-10)
(-88.3219999999 0 1.05233377941e-10)
(-88.3220000016 0 -9.36997801465e-11)
(-88.3219999989 0 6.75560477228e-12)
(-88.3219999981 0 -9.32895792014e-11)
(-88.3220000018 0 4.57850985784e-11)
(-88.3220000022 0 9.7803164233e-11)
(-88.3219999977 0 -7.90728872969e-11)
(-88.3219999977 0 3.77633192e-10)
(-88.3220000023 0 -2.97019624304e-11)
(-88.3220000017 0 4.23743760205e-11)
(-88.3219999988 0 -8.22371003457e-11)
(-88.3219999998 0 -1.39248302818e-12)
(-88.3220000005 0 -9.61904234406e-11)
(-88.3220000002 0 2.11007213383e-10)
(-88.3219999997 0 4.31681482637e-10)
(-88.3220000005 0 3.42951233028e-10)
(-88.3220000013 0 3.61295633031e-10)
(-88.3219999977 0 2.82251917444e-10)
(-88.3219999989 0 5.38448564206e-10)
(-88.3220000018 0 1.97619011971e-10)
(-88.3219999998 0 -3.75328230424e-10)
(-88.3220000002 0 1.09966280353e-10)
(-88.3219999992 0 -2.14286125594e-10)
(-88.321999999 0 2.38665320143e-10)
(-88.3220000016 0 5.9169180351e-10)
(-88.3220000008 0 -5.55651806489e-10)
(-88.3220000001 0 -1.84156172523e-10)
(-88.3219999997 0 4.42080956867e-10)
(-88.3219999996 0 4.79646125166e-11)
(-88.3219999998 0 -4.90780079288e-10)
(-88.3219999995 0 -1.09722980218e-09)
(-88.3219999998 0 8.52650490139e-10)
(-88.3220000001 0 1.01190679737e-09)
(-88.322 0 7.85508615699e-10)
(-88.3220000005 0 -3.19225766396e-10)
(-88.3220000001 0 -1.3504071087e-10)
(-88.322 0 2.56853776039e-10)
(-88.3220000004 0 -4.14622580391e-11)
(-88.322 0 -6.26906871354e-11)
(-88.3219999996 0 -9.13569453285e-12)
(-88.322 0 -3.1561332902e-12)
(-88.322 0 3.84189960305e-11)
(-88.322 0 1.7311869128e-11)
(-88.322 0 -8.72636396633e-12)
(-88.3220000001 0 7.27276117289e-11)
(-88.3220000002 0 -2.82847829649e-10)
(-88.3219999996 0 -2.96814987343e-10)
(-88.3219999999 0 4.69641261566e-11)
(-88.3220000003 0 -2.78401742819e-11)
(-88.322 0 3.72709366227e-11)
(-88.3220000002 0 1.68098112411e-10)
(-88.3219999995 0 1.61188759229e-10)
(-88.3219999994 0 -2.68351486846e-11)
(-88.3220000015 0 -3.01833652509e-12)
(-88.3220000012 0 3.36511699764e-11)
(-88.3219999981 0 3.42119582085e-11)
(-88.3219999984 0 8.74351469974e-11)
(-88.3220000005 0 -1.27742145008e-10)
(-88.3220000001 0 1.41378293051e-10)
(-88.322 0 4.80073756838e-12)
(-88.3219999999 0 2.69423075529e-10)
(-88.3220000006 0 2.89449466678e-10)
(-88.3220000013 0 3.80617511589e-10)
(-88.3219999994 0 -3.42053628076e-11)
(-88.3219999995 0 1.46690564165e-10)
(-88.3220000005 0 4.11298097783e-10)
(-88.3220000001 0 -3.53865647325e-11)
(-88.322 0 -5.54662431431e-10)
(-88.3219999998 0 -7.75443499546e-10)
(-88.3220000002 0 2.21185087583e-10)
(-88.3219999997 0 9.0446739592e-10)
(-88.3219999999 0 -1.11178763239e-09)
(-88.3220000003 0 -2.87576711193e-10)
(-88.322 0 1.50789180364e-10)
(-88.322 0 4.0155954392e-10)
(-88.322 0 -1.71649630542e-10)
(-88.322 0 2.47437476759e-10)
(-88.322 0 7.71014654966e-11)
(-88.322 0 3.33166546649e-10)
(-88.322 0 -4.75518785344e-11)
(-88.3220000002 0 6.25962125831e-10)
(-88.3219999997 0 5.14141083314e-10)
(-88.3219999996 0 -4.57747664581e-10)
(-88.3220000004 0 -1.40071201801e-10)
(-88.3220000001 0 3.1673106001e-10)
(-88.3220000008 0 6.12305847113e-12)
(-88.3219999993 0 3.67807574485e-10)
(-88.3219999984 0 -4.44417668172e-10)
(-88.3220000015 0 -8.09346317944e-11)
(-88.3220000019 0 -2.46478477542e-10)
(-88.3219999992 0 1.88653109609e-10)
(-88.3219999999 0 1.1338788575e-10)
(-88.3219999998 0 -3.00016073014e-10)
(-88.3220000001 0 8.08897902386e-10)
(-88.3219999992 0 6.90267116401e-10)
(-88.3219999985 0 4.10567265675e-10)
(-88.3220000002 0 1.67088567055e-10)
(-88.3220000005 0 -2.68022503717e-11)
(-88.3220000002 0 -1.21496049804e-10)
(-88.3219999989 0 -2.35286067564e-10)
(-88.322 0 4.39053860474e-10)
(-88.3220000005 0 6.45984598682e-10)
(-88.3219999999 0 4.0693203791e-12)
(-88.3219999999 0 4.36787294076e-10)
(-88.322 0 3.24376396905e-10)
(-88.322 0 -4.54450942915e-10)
(-88.322 0 2.18616772537e-11)
(-88.3219999998 0 9.61951736384e-11)
(-88.3220000003 0 -5.41631778037e-11)
(-88.3220000004 0 2.06428187442e-10)
(-88.3219999998 0 1.94618341595e-10)
(-88.3219999998 0 -5.64047958066e-10)
(-88.3219999998 0 5.13261867061e-10)
(-88.3219999997 0 4.1960373195e-10)
(-88.3219999997 0 5.5731611379e-10)
(-88.3220000004 0 1.18524740259e-10)
(-88.3220000003 0 -7.38235907395e-10)
(-88.322 0 -2.58704941238e-10)
(-88.3219999998 0 9.26991353033e-10)
(-88.3219999998 0 1.12086987814e-09)
(-88.3220000004 0 -6.60538140896e-10)
(-88.3219999999 0 -6.41208126051e-10)
(-88.3219999998 0 -4.73112591279e-10)
(-88.3219999998 0 -1.00267183629e-10)
(-88.321999999 0 1.19359019562e-10)
(-88.3219999996 0 -4.86385019801e-10)
(-88.3220000014 0 5.54116053284e-10)
(-88.3220000001 0 7.74853015778e-10)
(-88.321999999 0 -1.38752397605e-10)
(-88.322000002 0 -3.68442963863e-10)
(-88.3220000007 0 1.01210557141e-10)
(-88.3219999995 0 1.83221303591e-10)
(-88.3220000002 0 1.23584006947e-10)
(-88.3219999989 0 -1.34777264346e-10)
(-88.3220000004 0 -6.56544235307e-12)
(-88.322 0 -5.93688300602e-11)
(-88.3219999999 0 4.37982569509e-12)
(-88.3220000003 0 6.59422614552e-11)
(-88.3219999995 0 5.06965804111e-11)
(-88.322 0 -2.71179407646e-11)
(-88.322 0 2.05809310038e-11)
(-88.322 0 1.13921726304e-11)
(-88.322 0 9.41965113263e-12)
(-88.322 0 9.90507604388e-12)
(-88.3220000002 0 -8.84401740062e-11)
(-88.3219999998 0 3.11783923229e-10)
(-88.3220000002 0 -2.28569356394e-10)
(-88.3220000002 0 -7.84869205692e-11)
(-88.3219999995 0 -2.20974004738e-11)
(-88.3220000002 0 1.2712215352e-10)
(-88.3220000001 0 2.94439485845e-10)
(-88.3219999998 0 -4.30454084018e-10)
(-88.3220000012 0 -4.89341242052e-10)
(-88.3220000002 0 3.04031605116e-10)
(-88.3219999994 0 3.75363538632e-10)
(-88.3220000007 0 5.20181721716e-11)
(-88.3219999982 0 4.19566543064e-10)
(-88.3219999978 0 -9.41728671345e-11)
(-88.3220000002 0 5.00467512561e-10)
(-88.3220000008 0 -2.5236418589e-10)
(-88.3220000009 0 -7.926715735e-11)
(-88.322000001 0 -2.62380183465e-10)
(-88.3220000004 0 5.08557064482e-10)
(-88.321999999 0 2.14423903069e-11)
(-88.3219999983 0 -3.14232763594e-10)
(-88.3220000013 0 5.47383068666e-11)
(-88.3220000004 0 3.33898707942e-11)
(-88.3219999989 0 5.39085336785e-11)
(-88.3220000019 0 -9.66033923784e-11)
(-88.3220000006 0 6.25229207362e-11)
(-88.321999999 0 -1.84520780395e-10)
(-88.3220000002 0 -1.71213304307e-10)
(-88.3219999998 0 4.08206289435e-10)
(-88.3219999997 0 -3.81790646655e-10)
(-88.3220000012 0 -3.21927504594e-10)
(-88.3219999992 0 -6.00668534079e-11)
(-88.3219999983 0 -1.22293608242e-10)
(-88.3219999999 0 1.56874608362e-11)
(-88.3220000008 0 -2.75068377643e-10)
(-88.3220000021 0 -1.36219627604e-10)
(-88.322 0 4.23126936424e-11)
(-88.3219999982 0 -3.53134764412e-12)
(-88.3219999985 0 -2.33291777093e-12)
(-88.3220000012 0 -3.83033578853e-11)
(-88.3220000019 0 2.50933272395e-12)
(-88.322 0 -3.07160642434e-11)
(-88.321999999 0 -7.79762055563e-11)
(-88.3219999989 0 4.9172674519e-11)
(-88.3220000007 0 -3.47357939787e-10)
(-88.3219999996 0 -3.66558277325e-10)
(-88.3219999989 0 -6.07781853194e-10)
(-88.3220000008 0 3.31129595388e-10)
(-88.3220000018 0 -4.70142037983e-10)
(-88.322 0 -3.82567507308e-10)
(-88.3219999989 0 8.38589954348e-10)
(-88.3219999999 0 2.07741175062e-10)
(-88.3220000005 0 -1.20360491568e-10)
(-88.3220000005 0 -4.84911537722e-10)
(-88.3219999996 0 -1.4355210455e-10)
(-88.3219999999 0 6.40355432073e-10)
(-88.322 0 -1.95482373361e-10)
(-88.3219999999 0 -7.89144609652e-11)
(-88.3220000001 0 5.61093766955e-11)
(-88.322 0 9.36599747633e-11)
(-88.322 0 -2.16185643579e-10)
(-88.322 0 7.04843103189e-11)
(-88.322 0 4.00405624652e-11)
(-88.3220000001 0 1.20110125849e-11)
(-88.3219999996 0 -9.68733249652e-12)
(-88.322 0 -4.55726541792e-11)
(-88.3220000005 0 3.32455974702e-11)
(-88.3219999999 0 -4.33055863481e-11)
(-88.3219999998 0 1.29644208076e-10)
(-88.3220000002 0 -4.80998331492e-11)
(-88.3220000003 0 6.31662534311e-11)
(-88.3219999998 0 -6.74949131818e-11)
(-88.3220000001 0 4.83622613774e-11)
(-88.3220000002 0 3.21090863323e-10)
(-88.3219999997 0 6.62946675584e-12)
(-88.3219999998 0 1.01440683973e-10)
(-88.3220000002 0 4.85135232406e-10)
(-88.3219999999 0 -5.31090774951e-10)
(-88.3219999996 0 -5.05951894722e-10)
(-88.3219999997 0 3.83913026486e-11)
(-88.3220000002 0 2.70032682223e-10)
(-88.3220000005 0 -1.01076916416e-10)
(-88.322 0 9.99606670373e-11)
(-88.3220000005 0 2.27217445342e-10)
(-88.3219999998 0 -4.09626855398e-10)
(-88.3219999998 0 -6.75239414237e-10)
(-88.3219999999 0 1.87923343034e-10)
(-88.3220000002 0 -4.42621445891e-10)
(-88.3219999999 0 -3.57644217827e-10)
(-88.3220000001 0 4.48969963511e-10)
(-88.3220000005 0 -4.00681671155e-11)
(-88.3219999986 0 -1.22248280894e-10)
(-88.3220000008 0 8.78052824797e-11)
(-88.3220000019 0 -1.91768777344e-10)
(-88.3219999992 0 -1.04882992905e-10)
(-88.3219999993 0 3.98574412294e-10)
(-88.3219999996 0 -5.11304831625e-10)
(-88.322 0 -3.62645089252e-10)
(-88.322 0 -5.41612505499e-10)
(-88.3219999998 0 1.44952296594e-11)
(-88.3220000001 0 4.80443656424e-10)
(-88.322 0 2.52266958938e-11)
(-88.3219999999 0 -3.90376705566e-10)
(-88.3219999998 0 -7.41223417175e-10)
(-88.3220000004 0 2.17822343313e-10)
(-88.322 0 1.93587203976e-10)
(-88.3219999996 0 2.55301985282e-10)
(-88.3220000004 0 -2.74084655342e-10)
(-88.3219999998 0 -3.06119160481e-10)
(-88.3220000002 0 7.43065486117e-11)
(-88.322 0 -5.2230498284e-10)
(-88.322 0 -4.99690295288e-10)
(-88.3220000003 0 -9.28376957712e-11)
(-88.3219999994 0 4.21715653873e-10)
(-88.3219999997 0 -8.62345634779e-11)
(-88.3220000014 0 -1.02159601959e-10)
(-88.3220000016 0 -1.19821914647e-10)
(-88.321999999 0 -5.44166001004e-11)
(-88.321999998 0 2.40838877018e-10)
(-88.3220000001 0 -5.59862015407e-11)
(-88.3220000013 0 9.87742368741e-11)
(-88.3219999999 0 -3.76367936992e-11)
(-88.3219999992 0 -2.63079392886e-11)
(-88.3220000006 0 4.6237756035e-11)
(-88.322 0 -1.22188831202e-11)
(-88.3219999995 0 -1.32084495676e-11)
(-88.3220000001 0 -4.7772233218e-11)
(-88.3220000001 0 -2.32413777584e-11)
(-88.3220000002 0 4.99678253575e-11)
(-88.3219999998 0 -2.04751177411e-10)
(-88.3220000001 0 6.07245963723e-11)
(-88.322 0 1.29412370509e-10)
(-88.3219999995 0 -1.76027837897e-10)
(-88.3220000002 0 -2.15224405749e-10)
(-88.3220000001 0 1.32142110139e-10)
(-88.3219999998 0 6.17954602604e-10)
(-88.3220000005 0 6.0467704741e-10)
(-88.3220000003 0 -2.79494057243e-10)
(-88.3219999999 0 -3.80248907597e-10)
(-88.3219999998 0 -2.56428960258e-10)
(-88.3219999995 0 -4.77217222312e-10)
(-88.3219999998 0 1.77112645987e-10)
(-88.3219999991 0 -4.50600530039e-10)
(-88.3219999992 0 3.57148357215e-10)
(-88.3220000013 0 -1.9686645013e-10)
(-88.3220000004 0 1.55156394751e-10)
(-88.3220000003 0 -3.12267410233e-10)
(-88.322 0 2.90376622641e-11)
(-88.322 0 -5.13501966546e-11)
(-88.322 0 6.08274139795e-12)
(-88.322 0 -7.86314676155e-11)
(-88.322 0 9.45877177843e-11)
(-88.322 0 4.55283114397e-11)
(-88.322 0 -1.00590163778e-10)
(-88.3220000001 0 1.8004708214e-10)
(-88.322 0 1.62612240537e-10)
(-88.322 0 -4.84988912892e-10)
(-88.322 0 5.70717150795e-10)
(-88.322 0 5.40868384262e-10)
(-88.322 0 6.91002948999e-11)
(-88.322 0 1.22138886611e-10)
(-88.322 0 -4.47469963302e-11)
(-88.322 0 9.48358619209e-11)
(-88.322 0 -1.28975468884e-11)
(-88.322 0 -6.6918699015e-13)
(-88.322 0 1.63538524521e-11)
(-88.322 0 -2.72013169333e-11)
(-88.322 0 1.49617205865e-11)
(-88.322 0 -2.01546914716e-11)
(-88.322 0 1.8516261585e-10)
(-88.322 0 -7.50537315124e-11)
(-88.322 0 -4.59855323155e-11)
(-88.322 0 9.73009102442e-11)
(-88.322 0 -2.49811245968e-11)
(-88.322 0 4.97675700246e-11)
(-88.322 0 -2.18954157595e-10)
(-88.322 0 5.20188193571e-11)
(-88.322 0 -1.05929758762e-10)
(-88.322 0 -1.49209464944e-11)
(-88.322 0 1.93389915082e-10)
(-88.3220000004 0 -1.91834849723e-10)
(-88.3219999999 0 1.76448026837e-10)
(-88.3219999996 0 -2.11909679852e-10)
(-88.3220000001 0 -7.49543270696e-10)
(-88.322 0 1.85472393247e-10)
(-88.322 0 3.27211821406e-10)
(-88.322 0 -3.87006670627e-11)
(-88.322 0 -9.25853118085e-11)
(-88.322 0 2.20817880807e-10)
(-88.322 0 -1.01804125631e-10)
(-88.322 0 -3.69066284439e-11)
(-88.322 0 -3.02492111446e-11)
(-88.322 0 -6.86713888094e-11)
(-88.322 0 1.61052965087e-10)
(-88.3219999998 0 -1.21939260209e-11)
(-88.3220000003 0 2.19772672034e-10)
(-88.3220000004 0 -5.95552622729e-11)
(-88.3219999995 0 -8.43713343585e-11)
(-88.3219999987 0 -1.89802138666e-10)
(-88.3219999989 0 7.15091424435e-11)
(-88.3220000019 0 1.38058151046e-10)
(-88.3220000022 0 -2.40663900969e-10)
(-88.3219999996 0 -1.09986955189e-10)
(-88.322 0 -3.46981990176e-11)
(-88.3219999993 0 -1.2489383448e-10)
(-88.3219999998 0 6.29005639643e-11)
(-88.3219999993 0 6.04962798401e-11)
(-88.3219999992 0 -1.04420591083e-09)
(-88.3220000006 0 -9.11668416042e-10)
(-88.322 0 -2.4186569683e-10)
(-88.3219999996 0 1.56918267613e-10)
(-88.3220000001 0 1.24874487889e-10)
(-88.3219999999 0 -1.7803349062e-10)
(-88.3219999999 0 -5.86973166652e-11)
(-88.3219999997 0 8.39403650469e-11)
(-88.3219999999 0 6.35619150051e-11)
(-88.3220000003 0 -1.46178466144e-10)
(-88.3219999999 0 -1.6487245176e-10)
(-88.322 0 -3.33985943418e-11)
(-88.322 0 -8.20305678413e-11)
(-88.322 0 1.71510187114e-11)
(-88.3219999999 0 -3.42095294284e-11)
(-88.3220000002 0 -1.51943346255e-11)
(-88.3220000001 0 -2.30592711869e-11)
(-88.3219999998 0 -3.46316459059e-11)
(-88.322 0 -4.46281853956e-11)
(-88.322 0 -4.23068506251e-11)
(-88.322 0 -3.81305273873e-12)
(-88.322 0 5.4039867999e-11)
(-88.322 0 -1.72154531612e-10)
(-88.3219999998 0 -7.43802810778e-11)
(-88.3219999998 0 5.37881625736e-10)
(-88.322 0 3.70143050888e-10)
(-88.3220000001 0 -4.8030515818e-10)
(-88.3220000001 0 -3.56978404237e-10)
(-88.322 0 -1.06454735566e-10)
(-88.3219999998 0 7.54139004522e-11)
(-88.3220000002 0 -1.82346020324e-10)
(-88.3220000003 0 1.40870183812e-10)
(-88.322 0 -1.54198764278e-10)
(-88.3220000002 0 -4.09925355791e-10)
(-88.3219999996 0 -3.27355251451e-10)
(-88.321999999 0 2.915440723e-10)
(-88.3220000016 0 -4.40936063655e-10)
(-88.3220000017 0 -4.76415176376e-10)
(-88.321999999 0 -4.20082892293e-10)
(-88.3219999998 0 4.5943324535e-10)
(-88.3219999994 0 3.38645118256e-10)
(-88.3219999991 0 -3.80013236317e-10)
(-88.3220000003 0 -2.43489809548e-10)
(-88.322 0 5.46297296385e-10)
(-88.322 0 1.26536427948e-10)
(-88.322 0 -3.70825492382e-10)
(-88.322 0 -5.86193818976e-10)
(-88.322 0 2.40060559307e-10)
(-88.3220000002 0 -2.42582551761e-10)
(-88.3219999999 0 -1.00090880743e-10)
(-88.3219999996 0 -5.21357613108e-10)
(-88.322 0 4.23364764456e-10)
(-88.3220000002 0 -1.39507029254e-10)
(-88.322 0 7.00618614039e-11)
(-88.3220000006 0 3.18278795743e-10)
(-88.3219999998 0 -4.28017405338e-10)
(-88.3219999992 0 -9.94262795293e-10)
(-88.3220000011 0 -1.19462332185e-09)
(-88.3220000008 0 -4.47257364395e-10)
(-88.3219999995 0 1.04387990958e-09)
(-88.3219999998 0 5.98661879301e-10)
(-88.3219999993 0 -7.69420638607e-11)
(-88.3219999994 0 -7.42446212384e-10)
(-88.3220000014 0 7.85554841994e-10)
(-88.3220000012 0 -3.84797728383e-11)
(-88.3219999996 0 -1.88908374573e-10)
(-88.3219999994 0 -3.8327149823e-11)
(-88.322 0 1.09148072487e-10)
(-88.3220000007 0 4.97335780175e-11)
(-88.3220000004 0 2.79069224243e-10)
(-88.3219999995 0 -2.37592843109e-10)
(-88.3219999998 0 2.01486721485e-10)
(-88.3220000005 0 -2.75774418539e-10)
(-88.3220000004 0 2.49461250674e-10)
(-88.3219999998 0 2.86441311421e-10)
(-88.322 0 -2.37253867375e-10)
(-88.3219999998 0 -4.27611670423e-10)
(-88.322 0 -1.32048420782e-10)
(-88.3220000001 0 -4.79770010084e-10)
(-88.322 0 -4.53663124994e-10)
(-88.322 0 -1.36925586356e-10)
(-88.322 0 7.38492761718e-11)
(-88.322 0 4.39444812406e-11)
(-88.322 0 1.11159688094e-10)
(-88.3219999999 0 -3.73661416433e-10)
(-88.3220000004 0 -7.49593526548e-10)
(-88.3220000002 0 3.40686171119e-10)
(-88.3219999985 0 3.30367140775e-10)
(-88.3219999991 0 7.89823090778e-10)
(-88.3220000021 0 -4.96170040315e-10)
(-88.3220000014 0 -4.84712775305e-10)
(-88.3219999993 0 3.18080636753e-10)
(-88.3219999992 0 3.04358179976e-10)
(-88.3220000001 0 3.01259253153e-10)
(-88.322 0 1.03085440214e-10)
(-88.322 0 3.45831071033e-10)
(-88.322000001 0 1.04231446469e-10)
(-88.3220000003 0 4.75355076039e-11)
(-88.3219999986 0 9.82258322969e-11)
(-88.3220000002 0 -1.45682063922e-10)
(-88.3220000015 0 -3.97616617403e-10)
(-88.3220000004 0 5.59969451475e-10)
(-88.3219999979 0 8.33509336193e-10)
(-88.3219999981 0 5.33770916259e-10)
(-88.3220000017 0 7.6412166208e-10)
(-88.3220000011 0 -5.41636882221e-10)
(-88.3219999983 0 -4.98555853591e-11)
(-88.3219999993 0 3.69977204967e-11)
(-88.3220000019 0 -7.12089111723e-11)
(-88.3220000014 0 6.2358606118e-11)
(-88.3219999988 0 -1.08674291256e-10)
(-88.3219999993 0 5.18805877789e-11)
(-88.3220000006 0 -1.24082369168e-10)
(-88.3220000006 0 -3.1239291501e-10)
(-88.3219999988 0 2.5041991303e-10)
(-88.321999999 0 3.52929986215e-10)
(-88.3220000011 0 4.67866324797e-10)
(-88.3219999994 0 -3.49280255016e-10)
(-88.3220000005 0 -3.52140023868e-10)
(-88.3220000012 0 7.63299300757e-10)
(-88.3220000003 0 1.19964768738e-10)
(-88.3220000009 0 1.19180101587e-10)
(-88.3219999979 0 3.58771193463e-10)
(-88.3219999976 0 5.63535243249e-10)
(-88.3220000022 0 6.82637203652e-10)
(-88.3220000018 0 -2.55354075239e-10)
(-88.321999998 0 -4.27792231014e-10)
(-88.3219999979 0 -1.93602643271e-10)
(-88.3220000011 0 4.55148068499e-10)
(-88.3220000006 0 4.29296641174e-10)
(-88.3219999993 0 3.05819531406e-10)
(-88.322 0 -2.06496241692e-10)
(-88.3219999998 0 -2.23712966432e-10)
(-88.3220000004 0 1.46439353096e-10)
(-88.322 0 -2.62524003731e-11)
(-88.3219999998 0 -7.60229556557e-11)
(-88.3219999999 0 -1.26871526216e-10)
(-88.3219999992 0 1.45560367188e-10)
(-88.3220000009 0 1.17925951479e-10)
(-88.3220000014 0 4.32836002043e-11)
(-88.3219999997 0 -4.02703530896e-11)
(-88.322 0 -3.56539012858e-10)
(-88.3220000005 0 -2.4734845329e-11)
(-88.3219999996 0 -9.41108754662e-11)
(-88.321999999 0 -1.17269155577e-10)
(-88.3219999995 0 8.49116736767e-11)
(-88.3219999999 0 -1.22425489727e-10)
(-88.3220000008 0 -1.12721034574e-11)
(-88.3220000017 0 -3.11861441414e-12)
(-88.3219999987 0 -7.06229842366e-11)
(-88.3219999979 0 1.99336148437e-10)
(-88.3219999989 0 -1.11630535617e-12)
(-88.3220000015 0 -3.7366475831e-10)
(-88.3220000026 0 -2.38475175037e-10)
(-88.3219999986 0 3.35341001382e-10)
(-88.3219999985 0 4.82961570329e-10)
(-88.322 0 1.05971777073e-10)
(-88.3220000001 0 -4.77965414382e-11)
(-88.3220000001 0 1.8637879157e-10)
(-88.3220000003 0 -1.00653706414e-10)
(-88.3220000005 0 1.66208273507e-10)
(-88.3220000001 0 4.14623288832e-10)
(-88.322 0 3.24651135299e-10)
(-88.3219999999 0 -2.81584951193e-10)
(-88.3220000004 0 5.42574552922e-10)
(-88.3219999994 0 2.69559176138e-10)
(-88.3219999989 0 6.54003073632e-10)
(-88.3220000001 0 -5.16411418311e-10)
(-88.3220000015 0 -3.40741212648e-10)
(-88.3220000007 0 5.30190822794e-10)
(-88.3219999992 0 2.0137126899e-10)
(-88.322 0 -5.57835972014e-10)
(-88.322 0 -1.19607084942e-10)
(-88.3220000002 0 3.53010518738e-10)
(-88.322 0 6.13799664337e-10)
(-88.322 0 -4.15358599766e-10)
(-88.3220000009 0 2.37934576764e-10)
(-88.3219999992 0 7.01633472627e-11)
(-88.3219999983 0 5.33643516327e-10)
(-88.3219999996 0 -4.51035146378e-10)
(-88.3220000016 0 2.71226977373e-11)
(-88.3220000017 0 1.61797850659e-10)
(-88.3219999984 0 -5.922183788e-10)
(-88.3219999989 0 1.17705755816e-10)
(-88.3220000005 0 7.96555755002e-10)
(-88.3220000006 0 7.66452769465e-10)
(-88.322 0 4.84491177716e-10)
(-88.321999999 0 -4.39182438659e-10)
(-88.3220000013 0 -6.15319224734e-10)
(-88.3220000013 0 5.19413709759e-10)
(-88.3219999994 0 5.14461667617e-10)
(-88.3219999996 0 -4.21337952212e-10)
(-88.322 0 -5.32150554335e-10)
(-88.3219999999 0 1.37696438383e-10)
(-88.322 0 -1.77146983093e-10)
(-88.322 0 -4.34189160548e-11)
(-88.322 0 1.31656061378e-10)
(-88.322 0 -2.33807590926e-10)
(-88.322 0 1.82359883435e-10)
(-88.322 0 -1.28080812112e-10)
(-88.322 0 1.51527986081e-10)
(-88.322 0 -2.36689321177e-10)
(-88.322 0 -1.48431867241e-10)
(-88.3220000002 0 -2.26265635455e-10)
(-88.3220000006 0 1.7403009828e-11)
(-88.3219999999 0 3.75684436741e-10)
(-88.3219999995 0 1.83523193854e-10)
(-88.3220000002 0 -1.44101139658e-10)
(-88.3219999997 0 -2.97107319527e-10)
(-88.322 0 1.52858067939e-10)
(-88.3220000002 0 2.06712904612e-10)
(-88.3219999997 0 -2.51361175432e-10)
(-88.322 0 4.22191645103e-10)
(-88.322 0 7.45822744671e-10)
(-88.3220000001 0 -3.17959780851e-10)
(-88.3219999997 0 -3.40342603078e-10)
(-88.3219999997 0 -8.15450914789e-10)
(-88.3220000006 0 4.07366304493e-10)
(-88.322 0 4.43200808947e-10)
(-88.3219999998 0 -3.45300813146e-10)
(-88.3220000002 0 -3.11328499567e-10)
(-88.322 0 -3.52373505464e-10)
(-88.322 0 -2.28690989896e-10)
(-88.322 0 -2.36059964412e-10)
(-88.322 0 -1.16983384826e-10)
(-88.322 0 1.22637868636e-10)
(-88.322 0 1.28939532309e-10)
(-88.3219999997 0 -1.54115607539e-10)
(-88.3220000003 0 3.72956230013e-10)
(-88.3220000003 0 -3.12820106314e-10)
(-88.3219999995 0 -7.40163079054e-10)
(-88.322 0 -5.80806285693e-10)
(-88.3219999997 0 -1.49165349251e-10)
(-88.3220000002 0 -4.66415771507e-11)
(-88.3220000005 0 -4.80514869591e-10)
(-88.3219999999 0 2.36533076239e-10)
(-88.322 0 3.70366074953e-10)
(-88.322 0 -3.84116505513e-10)
(-88.3220000003 0 6.9346217924e-11)
(-88.3220000002 0 -5.28979372432e-10)
(-88.3219999997 0 -4.63220458567e-10)
(-88.322 0 1.5352299346e-10)
(-88.3219999999 0 -8.27194431089e-10)
(-88.322 0 -5.01577327714e-10)
(-88.3219999999 0 -5.03098275823e-10)
(-88.3220000007 0 2.28511153837e-10)
(-88.3220000006 0 2.95558279355e-10)
(-88.3219999985 0 -5.94303128346e-10)
(-88.3219999991 0 -1.29783941222e-10)
(-88.3220000015 0 -5.0645002387e-10)
(-88.3220000003 0 2.71362122635e-10)