/*--------------------------------*- C++ -*----------------------------------*\
  =========                 |
  \\      /  F ield         | OpenFOAM: The Open Source CFD Toolbox
   \\    /   O peration     | Website:  https://openfoam.org
    \\  /    A nd           | Version:  6
     \\/     M anipulation  |
\*---------------------------------------------------------------------------*/
FoamFile
{
    version     2.0;
    format      ascii;
    class       volVectorField;
    location    "5.05e-05";
    object      U;
}
// * * * * * * * * * * * * * * * * * * * * * * * * * * * * * * * * * * * * * //

dimensions      [0 1 -1 0 0 0 0];

internalField   nonuniform List<vector> 
8192
(
(-88.3219999999 0 -2.9839256173e-10)
(-88.3219999996 0 -1.06169408849e-10)
(-88.3220000002 0 -7.53252166667e-11)
(-88.3220000004 0 -3.39198284417e-10)
(-88.3219999994 0 -6.92547014085e-11)
(-88.3219999996 0 -1.52420136915e-11)
(-88.3220000003 0 -4.73116937057e-12)
(-88.3219999999 0 1.62632520362e-10)
(-88.322 0 -3.0355892876e-10)
(-88.322 0 -6.11873508809e-10)
(-88.3219999999 0 -7.86459386354e-10)
(-88.322 0 3.95514147134e-10)
(-88.3220000003 0 6.93152376154e-10)
(-88.3220000001 0 -8.3089000076e-10)
(-88.3219999998 0 -6.5162955782e-10)
(-88.3219999998 0 4.03106939782e-10)
(-88.3219999997 0 3.81134058515e-10)
(-88.3219999998 0 7.73360375397e-10)
(-88.3220000003 0 -4.40442365824e-10)
(-88.3219999999 0 -6.40534204476e-10)
(-88.3219999996 0 2.63369152324e-10)
(-88.3220000004 0 4.09406759381e-10)
(-88.3220000004 0 -6.99219001425e-10)
(-88.3219999997 0 -6.1645802858e-10)
(-88.322 0 2.07766348768e-10)
(-88.3219999998 0 2.20497378368e-10)
(-88.3219999998 0 2.81174096475e-10)
(-88.3219999999 0 2.31376905344e-10)
(-88.3220000002 0 3.61717684785e-10)
(-88.3220000002 0 -1.92887203319e-10)
(-88.322 0 2.48542691608e-10)
(-88.3219999995 0 -9.39474778038e-11)
(-88.3219999987 0 1.47809151702e-10)
(-88.3220000021 0 5.99462551056e-10)
(-88.322000003 0 -9.66012479317e-10)
(-88.3219999985 0 -6.80875464889e-10)
(-88.3219999994 0 -5.18135278705e-12)
(-88.3219999996 0 -6.06847109318e-10)
(-88.3219999984 0 1.6573154448e-10)
(-88.3220000007 0 2.09017386309e-10)
(-88.3220000001 0 -9.09139219768e-11)
(-88.3219999997 0 8.98641847876e-11)
(-88.3220000002 0 -1.82880041727e-11)
(-88.322 0 -1.62841864896e-11)
(-88.322 0 -6.71663419079e-11)
(-88.322 0 -4.6405096372e-11)
(-88.322 0 -2.53235769534e-11)
(-88.3219999999 0 -2.09232019452e-11)
(-88.3220000001 0 3.89493152663e-11)
(-88.3219999998 0 -1.1937548487e-10)
(-88.3219999999 0 1.70012347137e-10)
(-88.3220000007 0 -9.51162642702e-11)
(-88.3219999993 0 -2.42507537063e-10)
(-88.3219999991 0 4.07792242261e-10)
(-88.3220000013 0 2.26600350756e-10)
(-88.3220000007 0 -1.95529363934e-10)
(-88.322 0 -2.16102887214e-11)
(-88.3219999998 0 -1.97515795402e-10)
(-88.3220000002 0 -5.47328391002e-11)
(-88.3219999991 0 -3.49812292709e-10)
(-88.3219999982 0 3.77912907085e-10)
(-88.3219999998 0 4.25131777954e-10)
(-88.3220000011 0 3.76907548016e-10)
(-88.3220000015 0 -7.70797495937e-11)
(-88.3220000001 0 -3.97743629997e-10)
(-88.3219999998 0 -1.02405487721e-10)
(-88.3220000002 0 1.72023164359e-10)
(-88.3219999996 0 2.80052367672e-11)
(-88.3219999999 0 3.27251275628e-10)
(-88.3220000003 0 -1.27155642871e-10)
(-88.3219999993 0 7.23796196233e-11)
(-88.3220000007 0 1.47109130909e-12)
(-88.3220000015 0 -1.18529334542e-11)
(-88.3220000009 0 -7.37235277053e-11)
(-88.3219999981 0 8.15825585712e-11)
(-88.321999997 0 -2.85486111286e-10)
(-88.3220000022 0 -2.87388442052e-11)
(-88.3220000026 0 -2.08673841775e-10)
(-88.3219999977 0 -3.54765581038e-10)
(-88.3219999981 0 3.59678084089e-10)
(-88.3219999995 0 2.76535352578e-10)
(-88.3220000018 0 1.52009388619e-10)
(-88.3220000026 0 -3.80020424132e-10)
(-88.3219999988 0 -2.14088324248e-10)
(-88.3219999983 0 -7.75556896333e-11)
(-88.3220000015 0 -4.4477364564e-11)
(-88.3220000017 0 2.3381454782e-10)
(-88.3219999985 0 -7.23814657658e-11)
(-88.3219999984 0 4.90387007868e-10)
(-88.322 0 -1.75236405881e-10)
(-88.3220000001 0 3.13883722611e-10)
(-88.3219999999 0 3.19285860284e-10)
(-88.3220000007 0 -1.09892702014e-10)
(-88.322 0 -2.3960251143e-11)
(-88.3219999998 0 1.04855155181e-10)
(-88.3220000006 0 3.92075271917e-11)
(-88.3219999997 0 -2.77719423271e-10)
(-88.3220000004 0 -5.04181305518e-10)
(-88.322 0 6.41406553957e-10)
(-88.3219999994 0 7.13751834268e-10)
(-88.3220000002 0 1.57841657499e-11)
(-88.322 0 3.21209504134e-10)
(-88.322 0 -1.61333427187e-10)
(-88.322 0 -2.72447228348e-10)
(-88.322 0 2.27156969921e-10)
(-88.3220000001 0 -1.20596948353e-10)
(-88.322 0 1.0455433958e-10)
(-88.322 0 -2.46682874937e-10)
(-88.322 0 -4.12594488832e-10)
(-88.322 0 -3.66257975859e-10)
(-88.322 0 -3.55027064841e-10)
(-88.322 0 -4.61397834827e-10)
(-88.322 0 -4.04218911969e-10)
(-88.322 0 -5.9809702777e-11)
(-88.3220000001 0 3.23563719085e-10)
(-88.3220000001 0 -1.10301339571e-10)
(-88.3219999997 0 6.98382325905e-11)
(-88.322 0 -1.28162985934e-10)
(-88.3220000001 0 -3.30831263048e-10)
(-88.3219999999 0 4.25767071926e-10)
(-88.322 0 -2.12132467362e-10)
(-88.3220000002 0 -1.32744228754e-10)
(-88.322 0 -3.77446093319e-10)
(-88.3219999999 0 1.03827402668e-09)
(-88.322 0 3.84315184567e-10)
(-88.3220000002 0 -8.52568853787e-10)
(-88.3220000002 0 -1.18884270114e-09)
(-88.3220000001 0 -4.71553415982e-10)
(-88.3219999992 0 1.00762531679e-10)
(-88.3219999986 0 1.44576674056e-10)
(-88.322 0 -4.26778672129e-11)
(-88.3220000001 0 2.37863298018e-10)
(-88.3219999998 0 -2.05431087561e-10)
(-88.3220000001 0 1.8194182311e-10)
(-88.322 0 -6.00701651719e-11)
(-88.3220000001 0 -1.48581465213e-10)
(-88.3220000002 0 2.6665090404e-10)
(-88.3219999998 0 5.65508162212e-10)
(-88.3220000003 0 7.4914279051e-10)
(-88.3220000002 0 -2.52238619593e-10)
(-88.3220000001 0 -5.73946827796e-10)
(-88.3220000006 0 5.62115154067e-10)
(-88.3219999987 0 5.83637067452e-10)
(-88.3219999986 0 -4.31301305995e-10)
(-88.3220000002 0 -3.85183590905e-10)
(-88.3220000011 0 -6.79888578591e-10)
(-88.322000001 0 4.77578731071e-10)
(-88.3219999994 0 5.89191492703e-10)
(-88.3219999992 0 -2.17902068313e-10)
(-88.3219999998 0 -2.04370944406e-10)
(-88.3220000004 0 6.55528736836e-10)
(-88.3219999993 0 6.12449454805e-10)
(-88.3220000002 0 -1.08919998991e-10)
(-88.3220000001 0 -2.05909192164e-10)
(-88.3219999989 0 -1.10819432855e-10)
(-88.3220000008 0 1.39387679249e-10)
(-88.3220000009 0 -1.38451212963e-10)
(-88.3219999998 0 8.89228313012e-11)
(-88.3219999999 0 7.96633080298e-11)
(-88.3220000004 0 8.80477361268e-12)
(-88.322 0 -5.24506580682e-10)
(-88.322 0 5.01615702196e-10)
(-88.3220000002 0 7.10778351709e-10)
(-88.322 0 -5.00174489907e-10)
(-88.3220000003 0 -7.90554108338e-10)
(-88.322 0 9.15293832433e-10)
(-88.3219999997 0 4.74953658015e-10)
(-88.3219999999 0 -3.68083742842e-10)
(-88.3219999999 0 -5.01858028156e-10)
(-88.322 0 2.41750220694e-10)
(-88.3220000005 0 -3.16786280978e-10)
(-88.3220000011 0 -7.89225613211e-11)
(-88.3220000003 0 -4.0530035541e-10)
(-88.3219999998 0 6.53531303975e-11)
(-88.3220000001 0 -6.92915431293e-10)
(-88.3219999999 0 -6.15970468842e-10)
(-88.3219999993 0 6.04179037575e-10)
(-88.3219999984 0 3.00900165177e-11)
(-88.3220000001 0 -4.92444652408e-10)
(-88.3220000012 0 2.00854043543e-10)
(-88.3219999993 0 -4.90914251044e-10)
(-88.3219999999 0 4.65296768544e-10)
(-88.322 0 1.15766491914e-10)
(-88.3220000005 0 -3.79425305253e-10)
(-88.3220000012 0 -4.42074324393e-10)
(-88.3220000003 0 -4.68063491086e-10)
(-88.321999998 0 -1.7428961041e-10)
(-88.3219999976 0 -2.40671410691e-10)
(-88.3220000021 0 -1.79295290559e-10)
(-88.322000003 0 9.38896648923e-11)
(-88.3220000002 0 7.12611330405e-11)
(-88.3219999999 0 9.78968889954e-11)
(-88.322 0 7.10603818243e-10)
(-88.3220000001 0 2.14343112726e-10)
(-88.3220000001 0 -1.06431128166e-10)
(-88.3219999999 0 1.9077035571e-10)
(-88.322 0 -2.36612276754e-10)
(-88.322 0 5.4923415539e-11)
(-88.322 0 2.04955595506e-11)
(-88.322 0 4.19763489923e-11)
(-88.322 0 5.03435727596e-11)
(-88.322 0 1.10478929865e-10)
(-88.3219999997 0 -4.64306542679e-11)
(-88.3219999997 0 1.83752232942e-10)
(-88.3220000006 0 -2.48559678014e-11)
(-88.3220000002 0 4.95445739155e-10)
(-88.3219999997 0 3.94183621241e-10)
(-88.322 0 -3.57136077065e-10)
(-88.322 0 -2.63706267989e-10)
(-88.322 0 -3.47121503986e-10)
(-88.322 0 5.88453182684e-10)
(-88.322 0 5.07405923032e-10)
(-88.322 0 -5.66752569914e-10)
(-88.3219999998 0 -4.98286303595e-10)
(-88.322 0 3.48699569738e-10)
(-88.322 0 5.8378776182e-10)
(-88.322 0 -2.49150353735e-10)
(-88.322 0 6.32499631384e-10)
(-88.3219999994 0 -1.98839240834e-10)
(-88.3219999999 0 7.74013829609e-11)
(-88.3220000008 0 -1.02251381846e-10)
(-88.3219999996 0 -3.29700652146e-10)
(-88.3219999998 0 1.33105497946e-10)
(-88.3220000017 0 -1.05308614231e-10)
(-88.3219999987 0 6.7905582423e-12)
(-88.321999998 0 -1.09623656836e-10)
(-88.322000002 0 5.23181348015e-11)
(-88.3220000024 0 1.04892133856e-10)
(-88.3219999975 0 -8.91143098171e-11)
(-88.3219999975 0 4.08719488923e-10)
(-88.3220000025 0 -4.64285274386e-11)
(-88.3220000019 0 4.80439379901e-11)
(-88.3219999987 0 -1.08763639729e-10)
(-88.3219999998 0 2.60732655099e-12)
(-88.3220000006 0 -1.24757615312e-10)
(-88.3220000002 0 2.48931119346e-10)
(-88.3219999997 0 4.45207556184e-10)
(-88.3220000006 0 3.65358033575e-10)
(-88.3220000013 0 3.89907324399e-10)
(-88.3219999974 0 3.10434239306e-10)
(-88.3219999989 0 5.80941602397e-10)
(-88.3220000021 0 1.9453063508e-10)
(-88.3219999998 0 -3.98835776781e-10)
(-88.3220000002 0 1.08564702291e-10)
(-88.3219999991 0 -2.54651808211e-10)
(-88.3219999989 0 2.2668761239e-10)
(-88.3220000017 0 6.46646514482e-10)
(-88.322000001 0 -5.98871188079e-10)
(-88.3220000002 0 -2.30790355219e-10)
(-88.3219999996 0 4.6103045614e-10)
(-88.3219999996 0 2.87387043802e-11)
(-88.3219999998 0 -5.51331161468e-10)
(-88.3219999994 0 -1.21515578668e-09)
(-88.3219999997 0 8.91055302289e-10)
(-88.3220000001 0 1.11481444978e-09)
(-88.322 0 8.72979281488e-10)
(-88.3220000005 0 -3.33339840982e-10)
(-88.3220000001 0 -1.72176802299e-10)
(-88.322 0 3.24299612091e-10)
(-88.3220000004 0 -4.71015590564e-11)
(-88.322 0 -7.86205156161e-11)
(-88.3219999996 0 -2.88600724409e-12)
(-88.322 0 -1.31084974354e-11)
(-88.322 0 5.60575514273e-11)
(-88.322 0 1.27863451343e-11)
(-88.322 0 -1.30756117031e-11)
(-88.3220000001 0 9.31506700465e-11)
(-88.3220000002 0 -3.31333047786e-10)
(-88.3219999995 0 -3.43706366773e-10)
(-88.3219999998 0 6.94082919255e-11)
(-88.3220000004 0 -3.17085346506e-11)
(-88.322 0 4.23934184022e-11)
(-88.3220000002 0 2.03595047945e-10)
(-88.3219999994 0 1.89998631517e-10)
(-88.3219999993 0 -3.69037695555e-11)
(-88.3220000017 0 -1.0435192505e-11)
(-88.3220000012 0 4.38515608277e-11)
(-88.3219999979 0 5.22761874384e-11)
(-88.3219999983 0 1.1163977509e-10)
(-88.3220000005 0 -1.27359778399e-10)
(-88.3220000001 0 1.6348402846e-10)
(-88.322 0 1.20580228236e-11)
(-88.3219999999 0 3.02767412529e-10)
(-88.3220000006 0 2.90632045496e-10)
(-88.3220000016 0 4.23076925872e-10)
(-88.3219999993 0 -4.41794606397e-11)
(-88.3219999994 0 1.48401815556e-10)
(-88.3220000005 0 4.4770081654e-10)
(-88.3220000001 0 -4.24736401292e-11)
(-88.322 0 -5.94899705705e-10)
(-88.3219999998 0 -8.23708646979e-10)
(-88.3220000002 0 2.8074455355e-10)
(-88.3219999997 0 9.99654329484e-10)
(-88.3219999999 0 -1.19233604194e-09)
(-88.3220000004 0 -2.98276852449e-10)
(-88.3219999999 0 1.17264603637e-10)
(-88.322 0 4.30849454933e-10)
(-88.322 0 -1.99617934457e-10)
(-88.322 0 2.57433553866e-10)
(-88.322 0 9.24386967422e-11)
(-88.322 0 3.63625730788e-10)
(-88.3219999999 0 -4.81751470701e-11)
(-88.3220000002 0 6.83895332844e-10)
(-88.3219999996 0 5.21445418422e-10)
(-88.3219999996 0 -5.16950998096e-10)
(-88.3220000004 0 -1.66271973753e-10)
(-88.3220000002 0 3.57970449241e-10)
(-88.3220000009 0 3.6565168225e-11)
(-88.3219999992 0 3.92356048857e-10)
(-88.3219999981 0 -5.09567088539e-10)
(-88.3220000016 0 -1.0536682046e-10)
(-88.3220000022 0 -2.6612696181e-10)
(-88.3219999991 0 2.50818101619e-10)
(-88.3219999998 0 1.07858854194e-10)
(-88.3219999998 0 -2.95866550291e-10)
(-88.3220000001 0 8.72869565175e-10)
(-88.3219999992 0 7.78372768942e-10)
(-88.3219999983 0 4.48286575515e-10)
(-88.3220000002 0 1.76034195238e-10)
(-88.3220000005 0 -5.17342917554e-11)
(-88.3220000003 0 -1.49897246496e-10)
(-88.3219999988 0 -2.78385712795e-10)
(-88.3219999999 0 5.10413356204e-10)
(-88.3220000007 0 6.98028018048e-10)
(-88.3219999999 0 2.42013371197e-11)
(-88.3219999999 0 4.50795710264e-10)
(-88.3219999999 0 3.15072173239e-10)
(-88.322 0 -4.96278538909e-10)
(-88.3220000001 0 3.13247825868e-11)
(-88.3219999998 0 1.0335470642e-10)
(-88.3220000003 0 -7.38130766018e-11)
(-88.3220000005 0 2.55189367116e-10)
(-88.3219999998 0 2.18208582966e-10)
(-88.3219999997 0 -6.49168519443e-10)
(-88.3219999998 0 5.39607234706e-10)
(-88.3219999996 0 4.5452939754e-10)
(-88.3219999997 0 6.04926429931e-10)
(-88.3220000005 0 1.18572938353e-10)
(-88.3220000004 0 -8.29898528426e-10)
(-88.3219999999 0 -2.78046990834e-10)
(-88.3219999997 0 9.89901411277e-10)
(-88.3219999998 0 1.18090389653e-09)
(-88.3220000004 0 -7.25021744756e-10)
(-88.3219999999 0 -6.85203521814e-10)
(-88.3219999998 0 -5.21182629246e-10)
(-88.3219999998 0 -1.58990871454e-10)
(-88.3219999989 0 1.32055948099e-10)
(-88.3219999997 0 -5.61188343345e-10)
(-88.3220000015 0 6.14908065713e-10)
(-88.3220000001 0 8.93681988886e-10)
(-88.3219999989 0 -1.85753779736e-10)
(-88.3220000022 0 -3.8021683672e-10)
(-88.3220000008 0 1.12210692075e-10)
(-88.3219999994 0 2.16307273972e-10)
(-88.3220000002 0 1.29493541655e-10)
(-88.3219999988 0 -1.58202713755e-10)
(-88.3220000004 0 -1.04369797454e-11)
(-88.322 0 -5.54170547556e-11)
(-88.3219999999 0 6.22256826271e-12)
(-88.3220000004 0 8.58060508927e-11)
(-88.3219999995 0 6.00006535252e-11)
(-88.3220000001 0 -3.69162937882e-11)
(-88.322 0 3.15419626933e-11)
(-88.322 0 1.73531494517e-11)
(-88.322 0 1.31994132483e-11)
(-88.322 0 3.49364208359e-12)
(-88.3220000002 0 -1.10188634555e-10)
(-88.3219999997 0 3.44869422854e-10)
(-88.3220000002 0 -2.69286993551e-10)
(-88.3220000003 0 -8.97808099362e-11)
(-88.3219999994 0 -3.41054774828e-11)
(-88.3220000002 0 1.79377316653e-10)
(-88.3220000002 0 3.32186780196e-10)
(-88.3219999998 0 -4.40836882639e-10)
(-88.3220000013 0 -5.41610329646e-10)
(-88.3220000001 0 3.08589058461e-10)
(-88.3219999995 0 4.36058331919e-10)
(-88.3220000007 0 6.31614779217e-11)
(-88.321999998 0 4.52612795477e-10)
(-88.3219999976 0 -1.03267552243e-10)
(-88.3220000002 0 5.76574534666e-10)
(-88.3220000009 0 -2.38882412458e-10)
(-88.3220000011 0 -8.57173978764e-11)
(-88.322000001 0 -2.87153574835e-10)
(-88.3220000005 0 5.60792072878e-10)
(-88.3219999988 0 2.18716282705e-11)
(-88.3219999981 0 -3.86627850271e-10)
(-88.3220000014 0 6.99051179516e-11)
(-88.3220000005 0 4.26991658986e-11)
(-88.3219999989 0 5.95919835056e-11)
(-88.322000002 0 -1.18221768942e-10)
(-88.3220000006 0 5.8242206905e-11)
(-88.3219999989 0 -2.09036454003e-10)
(-88.3220000003 0 -1.73945076295e-10)
(-88.3219999998 0 4.02560914303e-10)
(-88.3219999996 0 -3.87083142763e-10)
(-88.3220000014 0 -3.01882951037e-10)
(-88.3219999992 0 -5.98138382566e-11)
(-88.3219999982 0 -1.24608959981e-10)
(-88.3219999998 0 3.23476216851e-11)
(-88.3220000009 0 -3.29315888279e-10)
(-88.3220000023 0 -1.69709732439e-10)
(-88.3219999999 0 5.92463178989e-11)
(-88.3219999981 0 -7.3111285788e-12)
(-88.3219999983 0 -4.58571440154e-12)
(-88.3220000013 0 -4.88956051087e-11)
(-88.3220000021 0 4.35805747533e-12)
(-88.3220000001 0 -8.23662706695e-11)
(-88.321999999 0 -7.69446268203e-11)
(-88.3219999988 0 5.22491028511e-11)
(-88.3220000008 0 -4.01548393756e-10)
(-88.3219999996 0 -3.93980332097e-10)
(-88.3219999987 0 -6.6912848461e-10)
(-88.3220000009 0 4.00792627133e-10)
(-88.322000002 0 -5.24442873479e-10)
(-88.322 0 -3.96973470733e-10)
(-88.3219999989 0 9.038338635e-10)
(-88.3219999999 0 2.28070697491e-10)
(-88.3220000006 0 -1.17890311021e-10)
(-88.3220000005 0 -5.47898424062e-10)
(-88.3219999995 0 -1.55759414738e-10)
(-88.3219999999 0 6.77030325514e-10)
(-88.3220000001 0 -2.51195038194e-10)
(-88.3219999998 0 -6.34120396416e-11)
(-88.3220000001 0 7.8018842824e-11)
(-88.322 0 1.11828368288e-10)
(-88.3219999999 0 -2.60854509067e-10)
(-88.322 0 8.57050895916e-11)
(-88.3220000001 0 5.57265957862e-11)
(-88.3220000001 0 1.81022608295e-11)
(-88.3219999995 0 -7.40292032207e-12)
(-88.322 0 -6.24160048211e-11)
(-88.3220000005 0 3.38225725829e-11)
(-88.3219999999 0 -5.74256152033e-11)
(-88.3219999997 0 1.59101259191e-10)
(-88.3220000002 0 -6.51975585222e-11)
(-88.3220000004 0 6.02288962868e-11)
(-88.3219999997 0 -6.15590345082e-11)
(-88.3220000001 0 5.37079541884e-11)
(-88.3220000003 0 3.13806000046e-10)
(-88.3219999997 0 -2.02373349224e-11)
(-88.3219999998 0 1.16037914401e-10)
(-88.3220000002 0 5.04604955745e-10)
(-88.3219999999 0 -5.68143580261e-10)
(-88.3219999996 0 -5.83662118552e-10)
(-88.3219999997 0 8.38059767789e-12)
(-88.3220000003 0 3.10847947365e-10)
(-88.3220000007 0 -1.02914067514e-10)
(-88.322 0 1.1524982238e-10)
(-88.3220000007 0 2.69238994938e-10)
(-88.3219999997 0 -4.71178504954e-10)
(-88.3219999998 0 -7.31787794169e-10)
(-88.3219999999 0 1.77992189125e-10)
(-88.3220000002 0 -4.49898682486e-10)
(-88.3219999999 0 -3.67601381382e-10)
(-88.3220000001 0 4.95983829038e-10)
(-88.3220000005 0 -6.13667749921e-11)
(-88.3219999985 0 -1.24638489348e-10)
(-88.3220000008 0 1.11088844344e-10)
(-88.322000002 0 -2.31123078623e-10)
(-88.3219999992 0 -9.67889464966e-11)
(-88.3219999993 0 4.35406821329e-10)
(-88.3219999995 0 -5.38186742608e-10)
(-88.322 0 -3.74429642175e-10)
(-88.322 0 -5.89228516551e-10)
(-88.3219999997 0 4.34553032561e-11)
(-88.3220000002 0 5.25073741315e-10)
(-88.322 0 1.69493587283e-11)
(-88.3219999999 0 -4.08497941029e-10)
(-88.3219999998 0 -8.09837063458e-10)
(-88.3220000005 0 2.57696534996e-10)
(-88.3219999999 0 1.8141573542e-10)
(-88.3219999995 0 3.01703297153e-10)
(-88.3220000005 0 -2.72933625073e-10)
(-88.3219999998 0 -3.34547564391e-10)
(-88.3220000002 0 1.01204993404e-10)
(-88.3219999999 0 -5.71140593729e-10)
(-88.322 0 -5.5506924665e-10)
(-88.3220000004 0 -8.5802107653e-11)
(-88.3219999994 0 4.3740838337e-10)
(-88.3219999996 0 -9.88142558543e-11)
(-88.3220000014 0 -1.19009127961e-10)
(-88.3220000018 0 -1.29012673762e-10)
(-88.3219999989 0 -6.01120338655e-11)
(-88.3219999979 0 2.70196118459e-10)
(-88.3220000002 0 -7.61175902912e-11)
(-88.3220000014 0 1.30639841487e-10)
(-88.3219999998 0 -4.34555236265e-11)
(-88.3219999991 0 -3.29211423821e-11)
(-88.3220000007 0 5.86579617136e-11)
(-88.322 0 -2.39069690962e-11)
(-88.3219999994 0 -1.53189840607e-11)
(-88.3220000002 0 -6.58494111432e-11)
(-88.3220000001 0 -2.07364315551e-11)
(-88.3220000003 0 5.80621092618e-11)
(-88.3219999997 0 -2.27558164752e-10)
(-88.3220000002 0 8.53073184078e-11)
(-88.322 0 1.58748915945e-10)
(-88.3219999994 0 -2.06125960698e-10)
(-88.3220000003 0 -2.75461066756e-10)
(-88.3220000001 0 1.74234292147e-10)
(-88.3219999998 0 6.91506552876e-10)
(-88.3220000006 0 6.55636538193e-10)
(-88.3220000003 0 -2.59394018594e-10)
(-88.3219999999 0 -4.35059738844e-10)
(-88.3219999998 0 -3.17071042937e-10)
(-88.3219999995 0 -5.04598236232e-10)
(-88.3219999998 0 1.94075129933e-10)
(-88.3219999991 0 -4.89245740425e-10)
(-88.3219999991 0 3.59216148959e-10)
(-88.3220000014 0 -2.35379175414e-10)
(-88.3220000005 0 1.7846640149e-10)
(-88.3220000003 0 -3.58536388612e-10)
(-88.322 0 5.79922782566e-11)
(-88.322 0 -6.56550323254e-11)
(-88.322 0 1.25012107474e-11)
(-88.322 0 -8.7653965392e-11)
(-88.3220000001 0 1.02101789896e-10)
(-88.3220000001 0 5.71781888233e-11)
(-88.322 0 -1.08816707333e-10)
(-88.3220000001 0 2.08601870408e-10)
(-88.322 0 1.6967780911e-10)
(-88.322 0 -5.04795702495e-10)
(-88.322 0 5.98731278505e-10)
(-88.322 0 5.45729649286e-10)
(-88.3220000001 0 4.64388045886e-11)
(-88.3219999999 0 1.25323017116e-10)
(-88.322 0 -6.40041374201e-11)
(-88.322 0 1.09294387849e-10)
(-88.322 0 -5.88975339838e-12)
(-88.322 0 -6.84486545572e-12)
(-88.322 0 3.00051432975e-11)
(-88.322 0 -3.49797561948e-11)
(-88.322 0 1.42993993321e-11)
(-88.322 0 -3.25525906129e-11)
(-88.322 0 2.42888499774e-10)
(-88.322 0 -1.03768896335e-10)
(-88.322 0 -4.92169066029e-11)
(-88.322 0 1.29542915937e-10)
(-88.322 0 -2.1435114411e-11)
(-88.322 0 6.66086479899e-11)
(-88.322 0 -2.70887337329e-10)
(-88.322 0 6.38553115918e-11)
(-88.322 0 -1.38004528281e-10)
(-88.322 0 7.72392974489e-12)
(-88.322 0 1.75154675151e-10)
(-88.3220000004 0 -2.42186722225e-10)
(-88.3219999998 0 1.99497456062e-10)
(-88.3219999995 0 -2.46485946898e-10)
(-88.3220000001 0 -7.74649045386e-10)
(-88.322 0 2.20101955419e-10)
(-88.3220000001 0 3.61366180959e-10)
(-88.322 0 -6.61431834511e-11)
(-88.322 0 -1.06467187346e-10)
(-88.322 0 2.66686632194e-10)
(-88.3220000001 0 -1.25709964646e-10)
(-88.322 0 -4.60208318667e-11)
(-88.3219999999 0 -4.41349995287e-11)
(-88.322 0 -8.30803734376e-11)
(-88.3219999999 0 1.90638894926e-10)
(-88.3219999998 0 -1.5623272332e-12)
(-88.3220000004 0 2.55590503701e-10)
(-88.3220000005 0 -7.12089945405e-11)
(-88.3219999994 0 -9.50685761711e-11)
(-88.3219999985 0 -2.17979919694e-10)
(-88.3219999988 0 8.30320437988e-11)
(-88.322000002 0 1.48989115336e-10)
(-88.3220000025 0 -2.34726886004e-10)
(-88.3219999997 0 -1.19308888099e-10)
(-88.3219999999 0 -3.99913058966e-12)
(-88.3219999992 0 -1.50892125376e-10)
(-88.3219999998 0 8.86880470551e-11)
(-88.3219999992 0 6.93888334557e-11)
(-88.3219999992 0 -1.09277979478e-09)
(-88.3220000006 0 -1.02709766658e-09)
(-88.3220000001 0 -2.50077895579e-10)
(-88.3219999995 0 2.07660478891e-10)
(-88.3220000002 0 1.29210917723e-10)
(-88.3219999998 0 -2.10663636873e-10)
(-88.3219999999 0 -7.3662768589e-11)
(-88.3219999997 0 1.08117357438e-10)
(-88.3219999999 0 7.40150241391e-11)
(-88.3220000003 0 -1.75935276456e-10)
(-88.3219999999 0 -2.12205184731e-10)
(-88.322 0 -2.67852016468e-11)
(-88.322 0 -1.11526253706e-10)
(-88.322 0 3.58524882672e-11)
(-88.3219999999 0 -4.4660398725e-11)
(-88.3220000003 0 -2.97915386128e-11)
(-88.3220000001 0 -2.02171947344e-11)
(-88.3219999997 0 -3.88356065391e-11)
(-88.322 0 -5.12129777269e-11)
(-88.322 0 -5.46739172812e-11)
(-88.322 0 -2.71008647802e-12)
(-88.322 0 6.19004882345e-11)
(-88.322 0 -1.74662905226e-10)
(-88.3219999998 0 -7.85331723081e-11)
(-88.3219999998 0 6.01181221475e-10)
(-88.322 0 4.12852195938e-10)
(-88.3220000001 0 -5.06369370339e-10)
(-88.3220000001 0 -3.62285822495e-10)
(-88.322 0 -9.46176462049e-11)
(-88.3219999997 0 8.6946018507e-11)
(-88.3220000003 0 -2.13589852699e-10)
(-88.3220000004 0 1.65713188615e-10)
(-88.322 0 -1.61757558426e-10)
(-88.3220000002 0 -4.18802545857e-10)
(-88.3219999995 0 -3.51940083096e-10)
(-88.3219999989 0 3.57058253442e-10)
(-88.3220000018 0 -4.7092329032e-10)
(-88.3220000018 0 -5.00954109514e-10)
(-88.321999999 0 -4.37864840658e-10)
(-88.3219999998 0 4.87666681313e-10)
(-88.3219999993 0 3.41987521916e-10)
(-88.321999999 0 -3.98926246019e-10)
(-88.3220000003 0 -2.39860845021e-10)
(-88.322 0 5.85824608071e-10)
(-88.322 0 1.47941317822e-10)
(-88.3220000001 0 -4.22098915325e-10)
(-88.322 0 -6.36765224055e-10)
(-88.322 0 2.4152445583e-10)
(-88.3220000002 0 -2.46729603832e-10)
(-88.3219999998 0 -1.21593396626e-10)
(-88.3219999995 0 -5.35447088658e-10)
(-88.322 0 4.20766584597e-10)
(-88.3220000002 0 -1.6609187658e-10)
(-88.322 0 7.935400139e-11)
(-88.3220000007 0 3.93077023102e-10)
(-88.3219999998 0 -4.76558761211e-10)
(-88.3219999991 0 -1.10000809238e-09)
(-88.3220000012 0 -1.31316712246e-09)
(-88.3220000008 0 -5.01630355794e-10)
(-88.3219999994 0 1.14063938204e-09)
(-88.3219999998 0 6.48492680602e-10)
(-88.3219999992 0 -8.11623015176e-11)
(-88.3219999994 0 -8.21650214957e-10)
(-88.3220000015 0 8.58568729294e-10)
(-88.3220000013 0 -5.71895380918e-11)
(-88.3219999995 0 -2.05179610109e-10)
(-88.3219999993 0 -5.85946246588e-11)
(-88.322 0 1.1235490503e-10)
(-88.3220000009 0 4.23012739909e-11)
(-88.3220000004 0 3.51141339993e-10)
(-88.3219999994 0 -2.54296649924e-10)
(-88.3219999997 0 2.43476364502e-10)
(-88.3220000007 0 -2.89775243896e-10)
(-88.3220000005 0 3.08615747284e-10)
(-88.3219999997 0 3.37287432218e-10)
(-88.322 0 -2.76309151114e-10)
(-88.3219999998 0 -4.5173779722e-10)
(-88.322 0 -1.20575509748e-10)
(-88.3220000001 0 -5.06091996815e-10)
(-88.322 0 -4.65641954454e-10)
(-88.3220000001 0 -1.01413224229e-10)
(-88.322 0 6.91330829615e-11)
(-88.322 0 6.13764162482e-11)
(-88.3219999999 0 1.36738862261e-10)
(-88.3219999998 0 -4.15297539733e-10)
(-88.3220000004 0 -8.17781345997e-10)
(-88.3220000002 0 3.68738557386e-10)
(-88.3219999984 0 3.53375564529e-10)
(-88.321999999 0 8.33813123032e-10)
(-88.3220000023 0 -5.43720818503e-10)
(-88.3220000015 0 -5.52534405901e-10)
(-88.3219999992 0 3.49608762964e-10)
(-88.3219999992 0 3.30158216657e-10)
(-88.3220000002 0 3.26651161426e-10)
(-88.3219999999 0 1.0128449888e-10)
(-88.322 0 3.96442118241e-10)
(-88.3220000011 0 1.02300793671e-10)
(-88.3220000003 0 6.84199470195e-11)
(-88.3219999984 0 9.89353844427e-11)
(-88.3220000002 0 -1.61157039051e-10)
(-88.3220000016 0 -4.15026160718e-10)
(-88.3220000004 0 6.00178182029e-10)
(-88.3219999978 0 9.2660412209e-10)
(-88.321999998 0 6.0834113807e-10)
(-88.3220000017 0 8.12876842162e-10)
(-88.3220000012 0 -6.27438956283e-10)
(-88.3219999982 0 -7.46482966671e-11)
(-88.3219999992 0 6.47041402406e-11)
(-88.322000002 0 -9.07935285526e-11)
(-88.3220000015 0 6.93107400627e-11)
(-88.3219999987 0 -1.33102473921e-10)
(-88.3219999992 0 6.65164379003e-11)
(-88.3220000006 0 -1.33867198011e-10)
(-88.3220000006 0 -3.39022797802e-10)
(-88.3219999988 0 2.75192892334e-10)
(-88.321999999 0 3.91063604623e-10)
(-88.3220000012 0 5.40698449254e-10)
(-88.3219999993 0 -3.69983382586e-10)
(-88.3220000005 0 -3.72764168001e-10)
(-88.3220000013 0 8.76551470371e-10)
(-88.3220000004 0 1.55824032316e-10)
(-88.322000001 0 1.28636740616e-10)
(-88.3219999977 0 3.73692177689e-10)
(-88.3219999974 0 5.9524691587e-10)
(-88.3220000023 0 7.55311631099e-10)
(-88.3220000019 0 -2.82245646109e-10)
(-88.3219999979 0 -5.17510219458e-10)
(-88.3219999977 0 -2.04396613333e-10)
(-88.3220000012 0 4.81787414803e-10)
(-88.3220000007 0 4.87255231539e-10)
(-88.3219999992 0 3.248624494e-10)
(-88.322 0 -2.53985758325e-10)
(-88.3219999997 0 -2.46560681947e-10)
(-88.3220000004 0 1.74182701364e-10)
(-88.3220000001 0 -2.63887234223e-11)
(-88.3219999998 0 -9.85538811554e-11)
(-88.3219999998 0 -1.57402608156e-10)
(-88.3219999991 0 1.87546621467e-10)
(-88.322000001 0 1.50841903675e-10)
(-88.3220000016 0 5.47123102057e-11)
(-88.3219999997 0 -4.95034019798e-11)
(-88.322 0 -4.46544798672e-10)
(-88.3220000005 0 -1.55760929103e-11)
(-88.3219999995 0 -1.14393800075e-10)
(-88.321999999 0 -1.43388225122e-10)
(-88.3219999994 0 1.01651738871e-10)
(-88.3219999999 0 -1.56314560376e-10)
(-88.3220000009 0 -1.30081247926e-11)
(-88.3220000019 0 -9.15283845359e-12)
(-88.3219999986 0 -7.35760693603e-11)
(-88.3219999977 0 2.09953309475e-10)
(-88.3219999989 0 -9.97874254948e-12)
(-88.3220000016 0 -4.03134278613e-10)
(-88.3220000028 0 -2.57734879274e-10)
(-88.3219999985 0 3.50486307996e-10)
(-88.3219999983 0 5.252308858e-10)
(-88.322 0 8.81237756139e-11)
(-88.3220000001 0 -4.56112849759e-11)
(-88.3220000001 0 2.17193718984e-10)
(-88.3220000004 0 -1.13094549667e-10)
(-88.3220000006 0 1.76143479805e-10)
(-88.3220000002 0 4.28765751064e-10)
(-88.322 0 3.46599208418e-10)
(-88.3219999998 0 -3.41590532379e-10)
(-88.3220000004 0 5.80902061419e-10)
(-88.3219999993 0 2.52566784472e-10)
(-88.3219999987 0 7.0556582807e-10)
(-88.3220000001 0 -5.36456872638e-10)
(-88.3220000018 0 -3.48264609292e-10)
(-88.3220000007 0 5.49416521946e-10)
(-88.321999999 0 1.7977491715e-10)
(-88.322 0 -6.07382585053e-10)
(-88.3220000001 0 -1.43807668266e-10)
(-88.3220000002 0 4.01025993837e-10)
(-88.3219999999 0 6.67345031115e-10)
(-88.3219999999 0 -4.47798285317e-10)
(-88.322000001 0 2.51173251244e-10)
(-88.3219999991 0 9.27263595263e-11)
(-88.3219999981 0 5.57470444542e-10)
(-88.3219999996 0 -4.56195653923e-10)
(-88.3220000018 0 3.18906025489e-11)
(-88.3220000019 0 1.93438718301e-10)
(-88.3219999982 0 -6.93512711455e-10)
(-88.3219999988 0 1.2164544537e-10)
(-88.3220000006 0 8.8228620075e-10)
(-88.3220000007 0 8.34133927046e-10)
(-88.322 0 5.44419373384e-10)
(-88.3219999988 0 -4.55974734482e-10)
(-88.3220000014 0 -6.53279140289e-10)
(-88.3220000016 0 5.51642312277e-10)
(-88.3219999993 0 5.71998341455e-10)
(-88.3219999995 0 -4.7087899765e-10)
(-88.322 0 -5.62753261578e-10)
(-88.3219999999 0 1.51573302421e-10)
(-88.322 0 -1.80910386857e-10)
(-88.3220000001 0 -4.85892195832e-11)
(-88.322 0 1.59495217928e-10)
(-88.322 0 -2.87467927492e-10)
(-88.322 0 1.77249493145e-10)
(-88.322 0 -1.67118400345e-10)
(-88.322 0 1.47575354418e-10)
(-88.322 0 -2.73764847888e-10)
(-88.3219999999 0 -1.78595816929e-10)
(-88.3220000003 0 -2.53107790171e-10)
(-88.3220000007 0 1.49755733466e-11)
(-88.3219999999 0 4.22650106432e-10)
(-88.3219999994 0 1.94035752492e-10)
(-88.3220000002 0 -1.63901365006e-10)
(-88.3219999997 0 -3.37269408226e-10)
(-88.322 0 1.91993415609e-10)
(-88.3220000002 0 2.32463117049e-10)
(-88.3219999996 0 -3.18319783901e-10)
(-88.3219999999 0 4.78741390353e-10)
(-88.322 0 8.17476346932e-10)
(-88.3220000001 0 -3.43578386751e-10)
(-88.3219999996 0 -3.61003874275e-10)
(-88.3219999996 0 -8.6863481167e-10)
(-88.3220000007 0 4.41094878711e-10)
(-88.3219999999 0 4.99873243634e-10)
(-88.3219999998 0 -3.7788475292e-10)
(-88.3220000002 0 -3.39319434271e-10)
(-88.3219999999 0 -3.94358925309e-10)
(-88.322 0 -2.61146047089e-10)
(-88.322 0 -2.55399219575e-10)
(-88.322 0 -1.32202699227e-10)
(-88.322 0 1.43208012118e-10)
(-88.322 0 1.5089674864e-10)
(-88.3219999997 0 -1.67724727545e-10)
(-88.3220000004 0 4.36970494501e-10)
(-88.3220000003 0 -3.28506189694e-10)
(-88.3219999994 0 -8.48831116851e-10)
(-88.322 0 -6.54837852957e-10)
(-88.3219999997 0 -1.89631026154e-10)
(-88.3220000002 0 -4.65169654455e-12)
(-88.3220000006 0 -5.16193504924e-10)
(-88.3219999998 0 2.43244918181e-10)
(-88.322 0 4.18031412769e-10)
(-88.322 0 -3.90987673909e-10)
(-88.3220000004 0 9.89775003301e-11)
(-88.3220000002 0 -5.66434664967e-10)
(-88.3219999996 0 -4.92438731574e-10)
(-88.322 0 1.88639999068e-10)