/*--------------------------------*- C++ -*----------------------------------*\
  =========                 |
  \\      /  F ield         | OpenFOAM: The Open Source CFD Toolbox
   \\    /   O peration     | Website:  https://openfoam.org
    \\  /    A nd           | Version:  6
     \\/     M anipulation  |
\*---------------------------------------------------------------------------*/
FoamFile
{
    version     2.0;
    format      ascii;
    class       volScalarField;
    location    "4.95e-05";
    object      p;
}
// * * * * * * * * * * * * * * * * * * * * * * * * * * * * * * * * * * * * * //

dimensions      [1 -1 -2 0 0 0 0];

internalField   nonuniform List<scalar> 
8192
(
6000000.00079
5999999.99938
6000000.0003
6000000.00123
6000000.00508
5999999.99801
6000000.00195
5999999.99926
6000000.0006
5999999.99983
6000000.00021
5999999.99984
6000000.0006
6000000.0014
6000000.00076
6000000.00069
6000000.00053
5999999.99787
5999999.999
6000000.0006
5999999.9986
5999999.99735
6000000.0017
5999999.99985
5999999.99945
5999999.99991
5999999.9978
5999999.99903
5999999.99823
5999999.99883
6000000.00025
6000000.00074
5999999.99635
5999999.99392
6000000.00774
6000000.00749
5999999.99912
6000000.00428
5999999.99967
5999999.99674
6000000.0043
5999999.99735
6000000.00041
5999999.99988
6000000.00055
6000000.00047
6000000.00023
5999999.9996
5999999.99929
6000000.00167
5999999.99665
6000000.0009
6000000.00342
5999999.99551
5999999.99599
6000000.0012
5999999.99997
6000000.00348
6000000.00014
6000000.0062
5999999.99654
5999999.9972
5999999.99699
6000000.00281
6000000.00094
6000000.00235
6000000.00011
6000000.00419
5999999.99534
6000000.00339
5999999.99859
5999999.99627
6000000.00253
6000000.00271
6000000.0068
5999999.99672
5999999.9946
6000000.00637
6000000.00245
5999999.99519
5999999.99447
5999999.99192
6000000.00318
6000000.00583
6000000.00011
5999999.99924
6000000.00638
6000000.00467
5999999.99721
5999999.99716
5999999.99821
5999999.99829
5999999.99687
6000000.00479
5999999.99661
6000000.00253
6000000.00163
5999999.99947
6000000.00375
5999999.9982
5999999.9997
5999999.99988
5999999.9997
6000000.00031
5999999.99877
6000000.00028
6000000.00012
6000000
5999999.99998
5999999.99998
6000000.00014
6000000.00039
5999999.99939
6000000.0007
5999999.9996
6000000.00167
6000000.00009
5999999.99845
6000000.00072
5999999.99888
5999999.99909
5999999.99871
6000000.00027
5999999.99859
6000000.00018
5999999.9995
6000000.00028
6000000.00035
6000000.00627
6000000.00057
5999999.99634
6000000.00069
5999999.99833
5999999.99959
5999999.99997
5999999.99955
6000000.00093
6000000.00091
5999999.99853
6000000.00368
6000000.00075
6000000.00318
6000000.00436
5999999.99661
5999999.99706
5999999.99804
6000000.0021
6000000.00229
5999999.99983
5999999.99992
5999999.99877
6000000.00073
5999999.99461
6000000.00022
5999999.99686
5999999.9968
6000000.00177
6000000.00155
5999999.99826
5999999.99911
5999999.99978
5999999.99966
6000000.0001
6000000.00045
5999999.9996
6000000.00226
6000000.00019
6000000.00116
5999999.99749
6000000.00064
5999999.9971
6000000.00343
6000000.00193
6000000.0027
6000000.00193
6000000.00413
6000000.00221
6000000.00012
5999999.99406
6000000.00312
6000000.00185
5999999.99775
6000000.00064
5999999.99785
6000000.00307
6000000.00056
6000000.00208
5999999.99263
5999999.99255
6000000.00186
6000000.00626
6000000.00419
5999999.99926
5999999.9991
6000000.00138
6000000.00056
5999999.99983
6000000.00001
5999999.99997
6000000.00001
6000000.00015
6000000.00012
6000000
5999999.99727
5999999.99749
6000000.00315
5999999.9992
5999999.99997
6000000.00005
5999999.99998
6000000.0001
6000000.00032
6000000.00044
5999999.9995
5999999.99994
6000000.00013
5999999.99961
6000000.00053
5999999.99994
5999999.99495
6000000.00124
6000000.00193
5999999.99712
6000000.00093
6000000.00684
5999999.99409
5999999.99683
6000000.00528
6000000.00854
5999999.99185
5999999.99438
6000000.00132
6000000.00404
5999999.99532
6000000.00339
6000000.00043
6000000.00481
5999999.99823
6000000.00714
6000000.00359
5999999.99054
6000000.0005
6000000.00689
5999999.9986
6000000.00545
5999999.99337
5999999.99813
6000000.00127
6000000.00363
6000000.00407
6000000.00047
6000000.00242
6000000.00083
5999999.99901
5999999.99928
5999999.99923
5999999.99995
5999999.99869
6000000.00065
5999999.99776
6000000.00191
5999999.99815
5999999.99953
5999999.99921
5999999.99963
5999999.99989
5999999.99993
6000000.00156
6000000.00158
5999999.99624
6000000.00045
6000000.00203
5999999.99986
6000000.0031
5999999.99538
5999999.99674
6000000.00501
6000000.0006
5999999.99629
5999999.99454
5999999.99991
5999999.99367
5999999.99852
5999999.9946
6000000.00184
6000000.00597
5999999.99563
6000000.00065
5999999.99912
6000000.0014
5999999.99928
5999999.99931
6000000.0016
5999999.99772
6000000.00235
6000000.00029
6000000.00006
6000000.00016
6000000.00001
6000000.00001
6000000.00004
6000000.00035
5999999.99886
6000000.00154
5999999.99734
5999999.99965
5999999.99797
6000000.00215
6000000.00655
5999999.99871
5999999.99317
6000000.0033
6000000.0076
5999999.99754
6000000.00351
5999999.99823
6000000.00754
5999999.99623
5999999.99632
5999999.99612
6000000.00163
6000000.00272
5999999.99468
6000000.00207
6000000.00125
5999999.99976
6000000.00114
5999999.99802
6000000.00057
6000000.00074
5999999.99745
6000000.00259
6000000.00223
6000000.00093
6000000.00024
5999999.99973
5999999.99687
5999999.99721
6000000.00084
6000000.00119
5999999.99973
5999999.99816
5999999.99734
6000000.00066
5999999.99653
6000000.00079
5999999.99645
5999999.99424
5999999.99661
6000000.00371
5999999.99694
5999999.99635
6000000.00727
5999999.99875
6000000.0031
5999999.99982
5999999.99609
6000000.00391
5999999.99495
6000000.00404
5999999.99996
5999999.99928
6000000.00143
5999999.9997
6000000.00118
6000000.00009
6000000.00108
6000000.00171
5999999.9979
6000000.00324
6000000.00157
5999999.99689
6000000.002
6000000.00033
6000000.00005
6000000.00389
5999999.99755
6000000.00422
6000000.00278
5999999.994
5999999.9916
5999999.99523
5999999.99866
6000000.00143
6000000.00254
6000000.00338
5999999.99359
5999999.99136
6000000.00161
5999999.99584
5999999.9988
6000000.00503
5999999.99817
5999999.99871
6000000.00251
5999999.99626
5999999.99796
6000000.0065
5999999.99604
5999999.99901
5999999.99439
6000000.00235
6000000.0052
5999999.99949
5999999.99803
5999999.9916
6000000.00469
5999999.99888
6000000.00491
5999999.99907
5999999.99634
6000000.00346
5999999.9948
5999999.9939
6000000.00038
6000000.00281
5999999.99823
5999999.99809
5999999.99775
6000000.00184
6000000.00188
5999999.99719
6000000.00217
5999999.99842
5999999.99942
6000000.00118
5999999.99894
5999999.99956
5999999.99992
6000000.00074
6000000.0014
5999999.99719
6000000.00178
6000000.00053
5999999.99955
5999999.99754
6000000.00192
6000000.00044
5999999.99898
6000000.00194
6000000.00152
5999999.9976
5999999.99947
6000000.00038
5999999.9992
5999999.99637
5999999.99679
5999999.99868
5999999.99514
6000000.0029
6000000.00208
6000000.00015
6000000.00058
5999999.99896
6000000.00343
5999999.998
6000000.0031
6000000.00202
5999999.99556
6000000.00454
6000000.00131
6000000.00048
6000000.00078
5999999.99811
6000000.00218
6000000.00035
5999999.99893
6000000.00147
6000000.00009
5999999.99924
5999999.99697
6000000.00488
5999999.99642
5999999.99958
6000000.00198
5999999.99664
6000000.00406
5999999.99566
6000000.00285
5999999.99904
5999999.99904
5999999.99707
6000000.00259
6000000.0063
5999999.9981
5999999.99801
6000000.00128
6000000.00282
5999999.99788
5999999.99709
6000000.00637
5999999.99791
5999999.9997
5999999.99955
6000000.00087
6000000.00337
5999999.99762
6000000.00471
5999999.99835
5999999.99866
6000000.00208
6000000.00029
5999999.99958
6000000.0035
6000000.00033
6000000.00313
5999999.99862
5999999.9992
5999999.99953
5999999.99756
5999999.99397
6000000.00285
6000000.00146
5999999.99843
5999999.99956
5999999.99861
6000000.00016
5999999.99803
6000000.00122
5999999.99863
6000000.00057
5999999.99938
5999999.99993
6000000.00035
5999999.9981
6000000.00092
6000000.00027
5999999.99986
5999999.99989
5999999.9998
6000000.00019
6000000.00038
5999999.99973
5999999.99998
5999999.99982
6000000.00002
5999999.99981
5999999.99992
5999999.9997
5999999.99936
5999999.99996
6000000
5999999.99981
5999999.99998
6000000.00009
5999999.9999
5999999.99856
6000000.0026
5999999.99825
5999999.99928
5999999.99902
5999999.99927
6000000.00014
5999999.99991
6000000.00001
5999999.99968
6000000.00163
6000000.00061
6000000.00011
6000000.00026
5999999.99931
5999999.99753
6000000.00272
6000000.00317
5999999.99834
5999999.99314
5999999.99312
6000000.00132
6000000.00659
6000000.0027
6000000.00393
5999999.99663
6000000.0046
5999999.9933
6000000.0011
5999999.99607
6000000.00039
5999999.99995
6000000.00336
5999999.99888
6000000.00202
5999999.99765
6000000.00182
5999999.99964
6000000.00002
6000000.00026
6000000.00039
6000000.00005
5999999.99953
6000000.00321
5999999.99961
6000000.00001
6000000.00002
5999999.99992
5999999.99989
6000000.00004
6000000.00064
5999999.99882
5999999.99879
5999999.99883
5999999.99931
5999999.9999
5999999.99856
5999999.99652
6000000.00186
6000000.00078
6000000.00089
6000000.00234
5999999.9974
5999999.99729
6000000.00761
6000000.00343
6000000.00151
6000000.003
5999999.9971
5999999.99873
6000000.00108
5999999.99909
6000000.00093
6000000.00022
6000000.00059
6000000.00061
6000000.00259
5999999.99945
5999999.99761
6000000.00057
5999999.99967
5999999.99967
6000000.00471
5999999.99909
5999999.99776
6000000.00308
6000000.00169
6000000.00047
6000000.00105
5999999.99632
5999999.99752
6000000.00483
6000000.00567
6000000.00279
5999999.99656
5999999.99758
6000000.00327
5999999.99992
5999999.99787
5999999.99666
6000000.00437
6000000.00328
5999999.99971
6000000.00202
5999999.99772
6000000.00145
5999999.99949
6000000.00064
6000000.00082
6000000.00049
6000000.0012
5999999.99944
5999999.99907
6000000.00143
6000000.00112
5999999.9939
5999999.9943
6000000.00354
6000000.00072
5999999.99925
5999999.9984
6000000.00321
5999999.99706
6000000.00084
6000000.00144
6000000.00303
5999999.99326
6000000.00287
6000000.00166
6000000.00502
5999999.99549
5999999.99776
6000000.00155
6000000.00049
5999999.99473
5999999.99768
6000000.00514
6000000.00597
5999999.99946
6000000.0018
6000000.0013
6000000.00429
5999999.99722
6000000.0015
6000000.0018
5999999.99525
6000000.00326
6000000.00347
6000000.00561
6000000.00871
5999999.9953
5999999.99799
6000000.00388
6000000.00675
5999999.99443
5999999.99485
6000000.00265
5999999.99797
6000000
6000000.00068
5999999.99596
6000000.00183
5999999.99688
6000000.00053
5999999.99584
5999999.99408
6000000.00404
6000000.00333
5999999.99835
6000000.00322
6000000.00128
6000000.00004
5999999.99981
5999999.99844
5999999.99697
6000000.00389
6000000.0076
5999999.99646
5999999.99854
5999999.99226
6000000.00493
6000000.0062
5999999.99556
5999999.99732
5999999.99579
5999999.99721
5999999.9964
6000000.0011
5999999.99907
6000000.00201
5999999.99894
5999999.9998
6000000.00348
5999999.99415
5999999.9946
5999999.99618
6000000.00722
6000000.00028
5999999.99845
6000000.00099
6000000
6000000.00275
5999999.99904
6000000.00159
6000000.00607
5999999.99621
5999999.99406
5999999.99235
6000000.00307
6000000.0028
5999999.99206
5999999.99643
5999999.99681
6000000.00138
5999999.99863
5999999.9929
6000000.004
6000000.00476
5999999.99989
6000000.00091
5999999.99997
6000000.00068
6000000.00091
6000000.00055
6000000.00005
5999999.99999
5999999.99991
5999999.99988
6000000.00015
6000000.00037
5999999.99823
6000000.0022
6000000.00679
5999999.99996
6000000.001
6000000.003
5999999.99924
6000000.00364
6000000.00128
5999999.99992
5999999.9999
5999999.99988
6000000.00152
5999999.99733
5999999.99706
6000000.0011
5999999.99596
6000000.00113
5999999.99858
5999999.99945
5999999.99914
5999999.99985
5999999.99978
6000000.00005
6000000.00045
5999999.99783
6000000.00352
5999999.99855
5999999.99897
5999999.99992
5999999.99782
6000000.0011
6000000.00121
6000000.00013
6000000.00044
5999999.99885
6000000.00391
5999999.99982
6000000.00001
6000000.00053
5999999.9996
6000000.00043
5999999.99754
6000000.00612
6000000.0036
5999999.99462
5999999.99836
6000000.00227
5999999.99805
6000000.0036
5999999.99882
5999999.99986
6000000.00006
5999999.99945
6000000.0003
5999999.99909
6000000.00076
5999999.99691
6000000.00197
6000000.00109
6000000.00106
5999999.99962
6000000.00012
5999999.9968
6000000.00703
6000000.00364
5999999.99377
6000000.00149
6000000.00311
6000000.00468
5999999.99586
5999999.99529
6000000.00433
5999999.99855
5999999.99938
6000000.00027
5999999.99997
5999999.99992
5999999.99996
6000000.00002
5999999.99989
5999999.99993
5999999.99988
6000000.00027
5999999.99827
6000000.00274
5999999.99716
5999999.99961
6000000.00132
5999999.99281
6000000.00522
6000000.00509
6000000.00169
5999999.99931
6000000.00316
6000000.00551
5999999.99642
5999999.99514
6000000.00295
5999999.99909
6000000.00332
6000000.0054
6000000.00055
6000000.00597
6000000.00009
5999999.99979
6000000.00086
6000000.0007
5999999.99984
6000000.00008
6000000.00363
5999999.99781
6000000.00067
6000000.0018
6000000.00323
6000000.003
5999999.99445
6000000.00208
6000000.0007
6000000.00097
5999999.99903
6000000.00503
6000000.00365
5999999.99744
6000000.00304
6000000.0003
5999999.9992
6000000.00064
5999999.99941
6000000.00232
5999999.99328
6000000.00263
6000000.00151
6000000.00021
5999999.99871
6000000.00017
6000000.00132
5999999.99972
6000000.00001
6000000.00002
6000000
6000000.00002
5999999.99989
6000000.00001
5999999.99981
5999999.99992
6000000.00033
5999999.99891
6000000.00181
5999999.99956
5999999.9998
5999999.99967
6000000.00031
5999999.99819
6000000.00083
6000000.0005
6000000.00071
5999999.9974
5999999.99792
6000000.00112
6000000.00198
5999999.99836
6000000.00111
5999999.99813
6000000.00304
6000000.00274
6000000.00049
6000000.00032
5999999.99963
5999999.99897
6000000.00227
5999999.99526
6000000.00663
5999999.99679
5999999.99446
6000000.00369
6000000.0043
6000000.00528
5999999.99995
6000000.00022
5999999.99439
5999999.99537
5999999.99517
6000000.00193
5999999.99772
6000000.00516
5999999.99915
5999999.9973
6000000.00072
5999999.99718
6000000.00212
5999999.99805
6000000.00525
5999999.99257
5999999.99515
6000000.00415
5999999.99471
5999999.99671
5999999.99812
6000000.00202
6000000.00179
6000000.00127
6000000.00002
6000000.00105
6000000.00077
6000000.00263
5999999.99637
6000000.00228
6000000.00138
5999999.99973
5999999.99816
5999999.99997
6000000.00006
5999999.99832
5999999.99881
6000000.00149
5999999.9999
6000000.00164
6000000.00225
5999999.99717
5999999.99901
6000000.00479
5999999.99917
5999999.9997
5999999.99986
6000000.00001
6000000.00001
6000000.00014
6000000.00004
5999999.99981
6000000.00058
6000000.00011
5999999.99642
6000000.001
5999999.9995
5999999.99985
5999999.99998
6000000.00043
5999999.99792
6000000.0037
6000000.00201
5999999.99514
6000000.00668
5999999.99386
5999999.99298
6000000.00271
6000000.00538
5999999.9914
5999999.99749
5999999.99704
5999999.99927
6000000.00142
5999999.99788
6000000.0013
5999999.99598
5999999.99693
6000000.00064
5999999.99728
6000000.0036
5999999.99806
6000000.00165
6000000.00304
5999999.99539
5999999.99503
5999999.99399
5999999.99931
6000000.00489
6000000.00224
5999999.99606
5999999.99303
6000000.00413
6000000.00295
5999999.9933
5999999.99912
6000000.00586
6000000.00453
5999999.99783
5999999.99768
6000000.00466
5999999.99969
6000000.00002
6000000.00001
5999999.99982
6000000.00098
6000000.00154
5999999.99845
5999999.99816
5999999.99852
6000000.00052
6000000.0018
5999999.99946
6000000.00074
5999999.99825
5999999.99771
6000000.00155
6000000.0006
6000000.00032
6000000.00002
6000000.00003
5999999.99991
5999999.9999
6000000.00043
5999999.99901
5999999.99874
6000000.00015
6000000.00252
5999999.9979
5999999.99987
6000000.0001
5999999.99431
6000000.00041
6000000.00063
6000000.00471
6000000.00176
5999999.99933
6000000.0015
6000000.00046
5999999.99785
6000000.00315
5999999.99636
6000000.00319
6000000.00068
6000000.005
5999999.9991
5999999.99971
6000000.00595
6000000.00237
6000000.00384
6000000.0022
5999999.99631
5999999.99869
6000000.00311
5999999.99948
5999999.99749
5999999.99702
6000000.00269
5999999.99767
5999999.99887
5999999.99667
6000000.00029
6000000.00229
5999999.99829
5999999.99839
5999999.99879
5999999.99979
5999999.99985
6000000.00157
6000000.00062
6000000.00076
5999999.99896
6000000.00175
6000000.0016
5999999.99835
5999999.99983
6000000.00012
6000000.00002
6000000.00011
5999999.99995
6000000.00115
6000000.00118
5999999.99797
6000000.00296
6000000.00203
5999999.9962
6000000.00524
5999999.99481
5999999.99825
6000000.00265
6000000.00656
6000000.00301
6000000.00259
6000000.00175
5999999.99236
5999999.99717
5999999.99865
5999999.99904
6000000.00401
6000000.0048
5999999.99333
5999999.99693
5999999.99474
6000000.00592
6000000.00268
6000000.00308
5999999.99865
6000000.00099
6000000.00075
6000000.002
5999999.99954
5999999.99908
5999999.99979
6000000.00003
5999999.99991
6000000.00089
5999999.9992
6000000.00121
5999999.99981
6000000.00006
5999999.99863
5999999.99589
6000000.0036
6000000.00119
5999999.99597
5999999.99463
6000000.00576
5999999.99809
5999999.99562
6000000.0017
6000000.00637
5999999.99521
6000000.00435
5999999.99877
5999999.9977
6000000.006
5999999.99923
6000000.00015
5999999.99998
6000000
6000000.00007
6000000.00001
6000000.00007
6000000.00002
6000000.00007
6000000.0002
6000000.00025
6000000.00003
6000000.00017
5999999.99927
6000000.00117
6000000.00148
5999999.99473
6000000.00328
6000000.00508
5999999.9986
6000000.00182
6000000.00254
6000000.0023
5999999.99907
6000000.00028
5999999.99383
6000000.00128
5999999.99948
6000000.0013
6000000.00309
5999999.99903
5999999.99878
5999999.99939
5999999.99883
6000000.00026
5999999.99844
6000000.00125
6000000.00183
5999999.99827
5999999.99944
5999999.99869
6000000.00143
5999999.99968
5999999.99999
5999999.99976
5999999.99929
6000000.00089
5999999.99906
5999999.99801
6000000.00377
5999999.99623
6000000.00154
5999999.99886
5999999.99925
5999999.99987
5999999.99919
6000000.00199
5999999.99541
6000000.00199
5999999.99942
5999999.99918
6000000.00004
5999999.99944
5999999.99987
5999999.99955
6000000.00117
5999999.99841
5999999.99948
5999999.99995
5999999.99993
5999999.99992
5999999.99998
6000000.00009
5999999.99993
5999999.99968
6000000
5999999.99989
5999999.9999
6000000.00002
5999999.99937
6000000.00196
5999999.99949
6000000.00015
6000000.00013
6000000.00145
5999999.99803
6000000.00154
5999999.99613
6000000.00266
6000000.00171
6000000.00201
6000000.00236
5999999.99692
5999999.99917
5999999.99799
6000000.00259
5999999.99895
5999999.99805
6000000.00179
5999999.9982
5999999.9991
5999999.9996
6000000.00004
6000000.00437
6000000.00187
6000000.00334
5999999.99912
6000000.00033
6000000.00252
5999999.99494
6000000.00076
5999999.99646
6000000.00547
6000000.002
5999999.99406
5999999.99542
5999999.99512
6000000.00597
6000000.0019
6000000.00591
5999999.99699
5999999.99799
6000000.00078
5999999.99499
5999999.99405
5999999.99692
5999999.99821
6000000.00234
5999999.99472
5999999.99671
5999999.99343
6000000.00056
5999999.99508
5999999.99806
5999999.9966
5999999.9965
5999999.99501
5999999.99457
6000000.00416
6000000.00141
6000000.0014
5999999.99383
6000000.00246
5999999.99959
6000000.00024
6000000.00125
5999999.99854
6000000.00033
5999999.99584
6000000.00325
5999999.99479
5999999.99488
6000000.00256
5999999.99459
5999999.99517
6000000.006
5999999.99534
5999999.99385
6000000.00105
6000000.00199
5999999.99959
6000000.00141
6000000.00059
6000000.0004
5999999.99996
6000000.0007
5999999.99952
6000000.00061
5999999.99897
6000000.00032
6000000.00024
5999999.99992
5999999.99993
6000000.00015
6000000.00169
5999999.99986
5999999.99967
6000000.0013
6000000.00011
5999999.99944
5999999.99963
5999999.99948
5999999.99907
6000000.00027
6000000.00007
6000000.00037
5999999.99952
5999999.99907
6000000.00066
6000000.00219
5999999.99816
6000000.00089
6000000.00304
6000000.00271
5999999.99605
5999999.9974
6000000.0034
5999999.99932
6000000.00151
6000000.00053
5999999.99656
6000000.00302
6000000.00255
6000000.00004
5999999.99868
6000000.00006
5999999.99832
6000000.00368
6000000.00028
6000000.00118
5999999.99874
5999999.99747
6000000.00651
6000000.00597
5999999.99318
5999999.99743
6000000.00183
6000000.00141
5999999.99884
6000000.00124
5999999.99991
6000000.00338
5999999.99917
6000000.00254
5999999.99967
5999999.99953
5999999.99992
6000000.00004
5999999.99996
5999999.99998
5999999.99998
6000000.00001
6000000.00004
6000000.00014
6000000
6000000
6000000.00001
5999999.99998
6000000.00019
5999999.99999
6000000.00001
5999999.99993
5999999.99996
6000000.00021
6000000.00026
5999999.99995
6000000.00014
5999999.99999
6000000
5999999.99966
6000000.0003
5999999.99993
6000000.00032
5999999.99939
5999999.99926
5999999.99923
6000000.0006
5999999.99965
6000000.0029
5999999.99936
5999999.99967
5999999.99961
6000000.00018
6000000.00005
6000000.00013
5999999.99993
6000000.00001
6000000
6000000.00017
5999999.99901
6000000.00062
5999999.99888
6000000.00365
5999999.99939
5999999.99885
6000000.00148
5999999.99884
6000000.00389
6000000.00374
5999999.99862
5999999.9998
6000000.00627
6000000.00083
6000000.0007
6000000.00096
5999999.99969
6000000.00006
6000000.00007
6000000.00026
6000000.00008
6000000.00007
6000000.00032
5999999.99897
6000000.00128
6000000.00078
6000000.00051
6000000.00035
5999999.99927
5999999.99999
5999999.99992
6000000.00002
6000000.00004
6000000.00102
5999999.99891
5999999.99715
6000000.0024
5999999.99788
6000000.00226
5999999.99627
5999999.99906
5999999.9997
5999999.99686
5999999.99978
6000000.00423
5999999.99485
5999999.99374
6000000.00213
5999999.99316
5999999.99382
6000000.00102
5999999.9972
5999999.99852
5999999.99568
6000000.00239
6000000.00238
5999999.99661
6000000.00423
5999999.99794
5999999.99771
6000000.00245
6000000.00271
5999999.99954
5999999.99929
5999999.99962
6000000.00007
5999999.99981
5999999.99926
6000000.00188
5999999.99945
6000000.00209
5999999.99857
5999999.9981
6000000.00013
5999999.99886
5999999.9994
5999999.99819
5999999.99855
5999999.99864
5999999.99981
5999999.99857
6000000.00367
5999999.99948
5999999.9977
5999999.99981
5999999.99999
5999999.99996
5999999.99983
5999999.99983
6000000.00022
5999999.99998
5999999.99996
6000000.00014
6000000.00011
5999999.99998
6000000.00007
5999999.99998
6000000.00019
6000000.00074
6000000.00049
5999999.99762
5999999.99788
6000000.00124
6000000.00023
5999999.99998
5999999.99997
6000000
5999999.99989
5999999.99964
6000000.00012
6000000
5999999.99905
6000000.00071
5999999.99971
6000000.0015
5999999.99893
6000000.00023
6000000.00187
5999999.99945
6000000.00036
5999999.99933
6000000.00003
5999999.99991
6000000
5999999.99983
5999999.99991
6000000.00003
5999999.99931
5999999.99844
6000000.00018
5999999.9991
6000000.00237
5999999.99789
6000000.00117
6000000.00063
5999999.99986
6000000.0004
6000000.00137
5999999.99904
5999999.99611
6000000.00382
6000000.00018
6000000.00013
6000000.00076
6000000.00194
6000000.00036
5999999.99721
6000000.00437
6000000.00301
5999999.99971
5999999.99795
6000000.00217
6000000.00177
5999999.99886
6000000.00524
6000000.0003
6000000.00247
5999999.99694
5999999.99752
6000000.00133
5999999.99903
5999999.9997
5999999.99683
6000000.00403
6000000.00107
5999999.99867
6000000.0003
5999999.99838
6000000.00353
5999999.99834
6000000.00174
5999999.99442
6000000.00649
6000000.00497
5999999.99826
6000000.00113
5999999.99265
5999999.99233
6000000.00326
6000000.00242
6000000.00435
5999999.99784
5999999.99518
6000000.00423
5999999.99602
5999999.99884
5999999.99885
5999999.99801
6000000.00119
5999999.99899
6000000.00024
5999999.99984
5999999.99947
6000000.00039
5999999.99768
6000000.0022
5999999.99957
5999999.99876
6000000.00271
5999999.99793
6000000.00137
5999999.99606
6000000.00039
5999999.99999
5999999.99964
5999999.99844
5999999.99844
6000000.00154
6000000.00184
5999999.99915
6000000.00679
6000000.00254
5999999.99385
6000000.00311
5999999.99849
6000000.0069
6000000.00546
5999999.99741
5999999.99579
5999999.99878
6000000.00646
6000000.00197
5999999.99705
5999999.99575
5999999.99533
6000000.0029
5999999.99689
5999999.99468
5999999.99804
5999999.99481
6000000.00402
5999999.99731
5999999.99638
5999999.99861
6000000.00174
5999999.99738
5999999.99731
6000000.00132
6000000.00129
5999999.9962
5999999.99764
5999999.99549
5999999.99555
5999999.99735
5999999.99865
6000000.00091
5999999.99274
5999999.99398
6000000.00189
6000000.00049
5999999.99519
5999999.9956
5999999.995
5999999.99368
6000000.00431
5999999.99683
5999999.99239
6000000.00022
5999999.99589
6000000.00247
6000000.00498
5999999.99264
5999999.99457
5999999.99764
6000000.00551
6000000.00077
5999999.99758
6000000.00311
6000000.00591
5999999.99979
6000000.006
5999999.99626
5999999.99361
6000000.00363
6000000.00065
5999999.99953
5999999.99465
5999999.99641
6000000.00266
5999999.99615
5999999.99842
6000000.00212
5999999.99889
6000000.00299
6000000.00712
6000000.00319
5999999.99843
5999999.99525
5999999.99727
6000000.00574
6000000.00223
5999999.99563
5999999.99724
6000000.00082
6000000.00622
6000000.00091
5999999.99893
5999999.99972
6000000.00149
5999999.99861
5999999.99909
6000000.00339
6000000.00173
5999999.99696
6000000.00262
5999999.9967
5999999.99961
5999999.99737
6000000.00043
6000000.00226
5999999.99419
6000000
6000000.00104
5999999.99417
5999999.99753
6000000.00293
5999999.99811
5999999.99811
6000000.00248
5999999.99841
5999999.9966
5999999.99559
5999999.99793
5999999.99589
5999999.99929
5999999.99793
6000000.00676
5999999.99768
6000000.00028
6000000.0053
5999999.99862
6000000.00139
5999999.99998
6000000.00842
5999999.99719
6000000.00087
6000000.00633
6000000.00681
5999999.99897
5999999.99812
6000000.00994
6000000.00779
6000000.0061
5999999.99804
5999999.9981
6000000.00798
6000000.00833
6000000.00185
6000000.00671
6000000.0023
5999999.99513
6000000.0068
6000000.00782
6000000.00014
5999999.9973
6000000.00745
6000000.00255
5999999.9941
6000000.00241
6000000.00217
6000000.00907
6000000.00764
5999999.99769
6000000.00234
6000000.00711
5999999.99615
5999999.99955
6000000.00644
6000000.00915
6000000.00058
6000000.00633
6000000.00554
6000000.00491
5999999.99802
6000000.0013
6000000.00839
6000000.00954
6000000.01007
6000000.003
6000000.00298
6000000.00643
6000000.01025
5999999.99971
6000000.00295
6000000.00573
5999999.99663
6000000.00562
6000000.0052
6000000.0099
6000000.0042
6000000.00739
6000000.00569
5999999.99362
6000000.00683
6000000.00207
5999999.99863
6000000.00875
5999999.99876
5999999.99978
5999999.99856
6000000.0004
5999999.99829
5999999.99958
5999999.99895
5999999.99948
5999999.99928
5999999.99947
5999999.99718
5999999.99772
5999999.99955
5999999.99812
6000000.00026
5999999.99826
5999999.9987
5999999.9983
6000000.00012
5999999.99791
5999999.99746
5999999.99859
5999999.99964
5999999.99853
5999999.99862
5999999.99959
5999999.99747
5999999.99841
5999999.99928
5999999.99585
5999999.9985
6000000.00021
5999999.99917
5999999.99673
5999999.99937
5999999.9974
5999999.99995
5999999.99887
5999999.99868
5999999.99675
5999999.99895
6000000.00007
5999999.99779
5999999.99943
5999999.9996
5999999.99868
5999999.99882
5999999.9991
5999999.99663
5999999.99689
5999999.9994
5999999.99995
6000000.00022
6000000.00034
5999999.99827
5999999.99895
5999999.99791
5999999.99832
5999999.99824
5999999.99875
5999999.99959
6000000.00035
6000000.00208
5999999.99831
5999999.99938
5999999.99945
5999999.99989
5999999.99971
6000000.0006
5999999.99986
5999999.99954
6000000.00021
5999999.99976
5999999.99973
5999999.99977
5999999.99979
6000000.00044
6000000.00008
5999999.99978
5999999.99958
6000000.00027
6000000.00037
5999999.99983
6000000.00036
5999999.99989
6000000.00034
5999999.99991
5999999.99987
6000000.00026
6000000.00001
6000000.00038
5999999.99987
5999999.99997
5999999.99955
6000000.00031
6000000.00048
6000000.00023
6000000.00048
5999999.99996
6000000.00052
6000000.00049
5999999.99973
6000000.00033
5999999.99994
6000000.00029
6000000.00011
5999999.99967
6000000.00082
6000000.00018
6000000.0005
6000000.00026
5999999.99952
5999999.99986
5999999.99975
6000000.00012
6000000.00001
6000000.00034
6000000.00043
5999999.99972
6000000.00002
6000000.00021
6000000.0001
6000000.00024
6000000.00014
6000000.00021
6000000.00042
5999999.99976
6000000.00057
6000000.00073
6000000.00105
6000000.00097
6000000.00105
6000000.0006
6000000.00102
6000000.00086
6000000.00119
6000000.00084
6000000.0008
6000000.00089
6000000.00088
6000000.00083
6000000.0008
6000000.0009
6000000.00097
6000000.00081
6000000.00098
6000000.00111
6000000.0009
6000000.00111
6000000.00121
6000000.00075
6000000.00099
6000000.00097
6000000.0009
6000000.00075
6000000.00057
6000000.001
6000000.00089
6000000.00088
6000000.00085
6000000.00086
6000000.00115
6000000.00073
6000000.00094
6000000.00075
6000000.00084
6000000.00066
6000000.00085
6000000.00102
6000000.0011
6000000.00099
6000000.00092
6000000.00092
6000000.00093
6000000.00078
6000000.00103
6000000.0012
6000000.00126
6000000.00074
6000000.00089
6000000.00084
6000000.00095
6000000.00099
6000000.00093
6000000.00099
6000000.00105
6000000.00101
6000000.00102
6000000.00091
6000000.00126
6000000.00136
6000000.00086
5999999.99901
5999999.99869
5999999.99882
5999999.99903
5999999.99874
5999999.99914
5999999.99882
5999999.99879
5999999.99871
5999999.99871
5999999.99887
5999999.99899
5999999.99902
5999999.99883
5999999.99862
5999999.99874
5999999.99878
5999999.99898
5999999.99887
5999999.99901
5999999.9988
5999999.99877
5999999.99912
5999999.99897
5999999.99872
5999999.99889
5999999.99935
5999999.99873
5999999.99893
5999999.99907
5999999.99901
5999999.9994
5999999.99906
5999999.99909
5999999.99887
5999999.99886
5999999.99909
5999999.99868
5999999.99859
5999999.9987
5999999.99904
5999999.99909
5999999.99889
5999999.99901
5999999.99896
5999999.99897
5999999.99923
5999999.99903
5999999.9988
5999999.99897
5999999.99886
5999999.99865
5999999.99881
5999999.99863
5999999.99892
5999999.99888
5999999.99893
5999999.99899
5999999.99887
5999999.99886
5999999.9988
5999999.99904
5999999.99881
5999999.99886
5999999.99949
5999999.9993
5999999.9995
5999999.99976
5999999.99969
5999999.99962