/*--------------------------------*- C++ -*----------------------------------*\
  =========                 |
  \\      /  F ield         | OpenFOAM: The Open Source CFD Toolbox
   \\    /   O peration     | Website:  https://openfoam.org
    \\  /    A nd           | Version:  6
     \\/     M anipulation  |
\*---------------------------------------------------------------------------*/
FoamFile
{
    version     2.0;
    format      ascii;
    class       volVectorField;
    location    "4.56e-05";
    object      U;
}
// * * * * * * * * * * * * * * * * * * * * * * * * * * * * * * * * * * * * * //

dimensions      [0 1 -1 0 0 0 0];

internalField   nonuniform List<vector> 
8192
(
(-88.3220000001 0 -2.74739079108e-10)
(-88.3219999996 0 -6.03845108813e-11)
(-88.3220000001 0 -6.6906291084e-11)
(-88.3220000002 0 -2.18412858132e-10)
(-88.3219999995 0 -6.01989892259e-11)
(-88.3219999998 0 2.0807580549e-11)
(-88.3220000002 0 -2.46606699578e-12)
(-88.322 0 6.92782186662e-11)
(-88.322 0 -2.27479071787e-10)
(-88.322 0 -5.43562376824e-10)
(-88.3219999999 0 -6.43052651717e-10)
(-88.322 0 3.34389064655e-10)
(-88.3220000001 0 6.25597418883e-10)
(-88.322 0 -6.72837013328e-10)
(-88.3219999999 0 -5.97575472067e-10)
(-88.3219999999 0 3.20317740313e-10)
(-88.3219999999 0 2.2427519808e-10)
(-88.3219999999 0 5.55869297016e-10)
(-88.3220000001 0 -4.07156152247e-10)
(-88.322 0 -4.99407776647e-10)
(-88.3219999997 0 2.5602612761e-10)
(-88.3220000003 0 3.55464089636e-10)
(-88.3220000003 0 -5.13740177166e-10)
(-88.3219999999 0 -5.20375783245e-10)
(-88.322 0 1.44515662011e-10)
(-88.3219999999 0 1.45590832702e-10)
(-88.3219999999 0 1.8561372055e-10)
(-88.3219999999 0 1.53848869478e-10)
(-88.3220000002 0 2.57629190358e-10)
(-88.3220000001 0 -1.28172188237e-10)
(-88.3219999999 0 1.8686977345e-10)
(-88.3219999997 0 -2.37357586318e-11)
(-88.3219999991 0 1.04768617515e-10)
(-88.3220000016 0 4.83044839133e-10)
(-88.3220000023 0 -7.21434969194e-10)
(-88.3219999989 0 -5.77330305229e-10)
(-88.3219999997 0 -2.32441888463e-11)
(-88.3219999996 0 -5.17545423127e-10)
(-88.3219999987 0 1.72544577691e-10)
(-88.3220000005 0 1.44276286399e-10)
(-88.3220000001 0 -2.97632239215e-11)
(-88.3219999999 0 4.10680209693e-11)
(-88.3220000001 0 -1.20742542112e-11)
(-88.322 0 -1.41842150072e-11)
(-88.322 0 -5.16807423239e-11)
(-88.322 0 -3.03408223196e-11)
(-88.322 0 -1.66011263041e-11)
(-88.322 0 -1.53009992128e-11)
(-88.322 0 1.58096887366e-11)
(-88.3219999999 0 -7.07522862002e-11)
(-88.3219999999 0 8.89443273042e-11)
(-88.3220000005 0 -3.73410184851e-11)
(-88.3219999995 0 -1.80567367837e-10)
(-88.3219999994 0 2.89016836308e-10)
(-88.3220000011 0 1.61868585634e-10)
(-88.3220000005 0 -2.15559928291e-10)
(-88.3219999999 0 -4.00619116798e-11)
(-88.3219999998 0 -1.52449945647e-10)
(-88.3220000001 0 -3.5838033205e-11)
(-88.3219999993 0 -2.61663083216e-10)
(-88.3219999986 0 3.05941190231e-10)
(-88.3219999998 0 3.67711574625e-10)
(-88.3220000008 0 3.45091305359e-10)
(-88.3220000013 0 1.48767523304e-11)
(-88.322 0 -2.6357932291e-10)
(-88.3219999999 0 -7.54025509012e-11)
(-88.3220000001 0 9.20174676746e-11)
(-88.3219999998 0 6.33552470042e-12)
(-88.322 0 1.87705646816e-10)
(-88.3220000001 0 -1.06159887847e-10)
(-88.3219999996 0 3.41173335471e-11)
(-88.3220000005 0 5.27096011499e-12)
(-88.3220000012 0 -2.45325925475e-12)
(-88.3220000007 0 -4.92431209052e-11)
(-88.3219999983 0 5.40934089911e-11)
(-88.3219999975 0 -1.97871668245e-10)
(-88.3220000018 0 -2.04123536937e-11)
(-88.3220000023 0 -1.59638690781e-10)
(-88.3219999982 0 -2.68239959051e-10)
(-88.3219999985 0 2.55883178108e-10)
(-88.3219999997 0 1.78573280424e-10)
(-88.3220000014 0 1.41083290357e-10)
(-88.322000002 0 -2.95567197113e-10)
(-88.3219999988 0 -1.73407441453e-10)
(-88.3219999986 0 -3.72964561276e-11)
(-88.3220000013 0 1.77932196316e-11)
(-88.3220000015 0 1.77382280286e-10)
(-88.3219999989 0 -6.40096735932e-11)
(-88.3219999987 0 3.97798948768e-10)
(-88.322 0 -2.10799168302e-10)
(-88.3220000001 0 3.04445408864e-10)
(-88.3219999999 0 2.68318173827e-10)
(-88.3220000004 0 -3.37188535456e-11)
(-88.322 0 3.60877263336e-11)
(-88.3219999999 0 5.26608276649e-11)
(-88.3220000004 0 7.98876501777e-12)
(-88.3219999999 0 -1.90351949022e-10)
(-88.3220000002 0 -4.17345040926e-10)
(-88.322 0 4.8413765245e-10)
(-88.3219999996 0 5.73049258782e-10)
(-88.3220000001 0 -2.62825497289e-12)
(-88.322 0 2.89622337262e-10)
(-88.322 0 -1.74228550376e-10)
(-88.322 0 -1.74738098705e-10)
(-88.322 0 9.93438419018e-11)
(-88.322 0 -6.03567698873e-11)
(-88.322 0 4.31571749141e-11)
(-88.322 0 -1.58855894809e-10)
(-88.322 0 -3.79415915419e-10)
(-88.322 0 -3.09927136606e-10)
(-88.322 0 -3.03678614966e-10)
(-88.322 0 -3.44576326712e-10)
(-88.322 0 -3.41149283377e-10)
(-88.322 0 -1.0244890673e-10)
(-88.322 0 2.86433506147e-10)
(-88.3220000001 0 -7.15047441608e-11)
(-88.3219999999 0 4.83300965069e-11)
(-88.322 0 -8.63899723807e-11)
(-88.3220000001 0 -2.53201562426e-10)
(-88.322 0 4.01854102486e-10)
(-88.322 0 -1.47705194698e-10)
(-88.3220000001 0 -1.84391889157e-10)
(-88.322 0 -3.8490686767e-10)
(-88.3219999999 0 7.67444012121e-10)
(-88.322 0 2.88013429051e-10)
(-88.3220000001 0 -7.7243825267e-10)
(-88.3220000001 0 -1.00303862406e-09)
(-88.322 0 -4.17027397006e-10)
(-88.3219999994 0 5.62893477213e-11)
(-88.321999999 0 7.29791856283e-11)
(-88.322 0 -2.20903293286e-11)
(-88.322 0 1.59411586574e-10)
(-88.3219999999 0 -1.16957075017e-10)
(-88.322 0 1.13678124321e-10)
(-88.322 0 -2.9761917977e-11)
(-88.322 0 -6.8934116542e-11)
(-88.3220000001 0 2.00122514569e-10)
(-88.3219999999 0 5.09103929799e-10)
(-88.3220000002 0 6.0129684447e-10)
(-88.3220000001 0 -2.57709089715e-10)
(-88.322 0 -5.54420541413e-10)
(-88.3220000005 0 5.13242733406e-10)
(-88.321999999 0 5.3800125191e-10)
(-88.321999999 0 -3.34731288549e-10)
(-88.3220000001 0 -2.31212048551e-10)
(-88.3220000008 0 -5.08288218638e-10)
(-88.3220000008 0 4.31879286607e-10)
(-88.3219999995 0 4.66737898028e-10)
(-88.3219999994 0 -2.27339318128e-10)
(-88.3219999998 0 -2.21698041305e-10)
(-88.3220000004 0 4.96396249024e-10)
(-88.3219999995 0 5.14209908727e-10)
(-88.3220000003 0 -7.66130274752e-11)
(-88.322 0 -1.34170101392e-10)
(-88.321999999 0 -8.03763066873e-11)
(-88.3220000007 0 6.91697648626e-11)
(-88.3220000007 0 -3.58017318243e-11)
(-88.322 0 2.42468203847e-11)
(-88.322 0 8.79343688706e-11)
(-88.3220000003 0 -1.50877911385e-11)
(-88.322 0 -4.26625020731e-10)
(-88.322 0 4.00470758905e-10)
(-88.3220000001 0 5.63558585969e-10)
(-88.322 0 -3.37013071709e-10)
(-88.3220000003 0 -6.2065073291e-10)
(-88.322 0 7.60603707449e-10)
(-88.3219999997 0 3.73985405845e-10)
(-88.322 0 -3.57557371246e-10)
(-88.322 0 -4.04805863221e-10)
(-88.322 0 1.53199407622e-10)
(-88.3220000004 0 -2.55962060489e-10)
(-88.322000001 0 -5.76499311923e-11)
(-88.3220000003 0 -3.03360604256e-10)
(-88.3219999998 0 5.49547931166e-11)
(-88.322 0 -5.3220542047e-10)
(-88.3219999999 0 -5.76805515592e-10)
(-88.3219999995 0 4.36712077073e-10)
(-88.3219999987 0 1.71313943522e-11)
(-88.3219999999 0 -3.36928104958e-10)
(-88.3220000009 0 1.58215351373e-10)
(-88.3219999995 0 -4.11290289779e-10)
(-88.322 0 3.74764942936e-10)
(-88.322 0 4.59877499464e-11)
(-88.3220000003 0 -3.22675953266e-10)
(-88.3220000011 0 -3.32685506847e-10)
(-88.3220000004 0 -3.50323336584e-10)
(-88.3219999983 0 -1.58837953433e-10)
(-88.321999998 0 -1.60810578906e-10)
(-88.3220000018 0 -1.42906057309e-10)
(-88.3220000024 0 7.72530528245e-11)
(-88.322 0 4.65129831566e-11)
(-88.3219999999 0 6.37518244637e-11)
(-88.322 0 5.75236480245e-10)
(-88.322 0 1.68659613695e-10)
(-88.322 0 -1.88844597734e-11)
(-88.322 0 1.40928723511e-10)
(-88.322 0 -1.61029207322e-10)
(-88.322 0 3.06554261315e-11)
(-88.322 0 1.04484468208e-11)
(-88.322 0 3.31425210076e-11)
(-88.322 0 1.71850267147e-11)
(-88.322 0 8.36174178312e-11)
(-88.3219999999 0 -2.2342024987e-11)
(-88.3219999998 0 1.47842451358e-10)
(-88.3220000004 0 -5.28108332567e-12)
(-88.3220000001 0 3.19257457614e-10)
(-88.3219999999 0 3.07155662643e-10)
(-88.322 0 -2.44396072091e-10)
(-88.322 0 -1.71323546387e-10)
(-88.322 0 -2.48924164502e-10)
(-88.322 0 4.24267777522e-10)
(-88.322 0 4.02309033654e-10)
(-88.322 0 -4.58009158164e-10)
(-88.3219999999 0 -5.10811986664e-10)
(-88.322 0 3.01221606496e-10)
(-88.322 0 4.55935937326e-10)
(-88.322 0 -1.79880029262e-10)
(-88.322 0 5.34828591867e-10)
(-88.3219999996 0 -1.93078807088e-10)
(-88.3219999998 0 2.2108043183e-11)
(-88.3220000005 0 -1.0551417963e-10)
(-88.3219999998 0 -2.25677995144e-10)
(-88.3219999999 0 6.77981463657e-11)
(-88.3220000013 0 -7.65700292587e-11)
(-88.321999999 0 4.78366497054e-12)
(-88.3219999984 0 -6.81483621241e-11)
(-88.3220000015 0 3.96466529401e-11)
(-88.322000002 0 8.42652693441e-11)
(-88.321999998 0 -6.20610795097e-11)
(-88.321999998 0 3.27583427873e-10)
(-88.3220000021 0 -1.36780476057e-11)
(-88.3220000015 0 3.01619570387e-11)
(-88.3219999989 0 -5.28766101784e-11)
(-88.3219999998 0 -7.28004881188e-12)
(-88.3220000004 0 -6.04248897749e-11)
(-88.3220000001 0 1.60836811651e-10)
(-88.3219999998 0 4.0888105974e-10)
(-88.3220000005 0 3.07727768621e-10)
(-88.3220000012 0 3.19344126821e-10)
(-88.3219999981 0 2.41371851147e-10)
(-88.321999999 0 4.6602409533e-10)
(-88.3220000015 0 1.97798568662e-10)
(-88.3219999998 0 -3.32998951974e-10)
(-88.3220000003 0 1.06169363684e-10)
(-88.3219999993 0 -1.627941656e-10)
(-88.3219999991 0 2.4711363677e-10)
(-88.3220000014 0 5.15686386222e-10)
(-88.3220000007 0 -5.02421115694e-10)
(-88.322 0 -1.28116139703e-10)
(-88.3219999998 0 4.08337653582e-10)
(-88.3219999997 0 7.61459174026e-11)
(-88.3219999998 0 -4.18655255e-10)
(-88.3219999996 0 -9.33174895206e-10)
(-88.3219999998 0 8.01999036561e-10)
(-88.3220000001 0 8.68655498642e-10)
(-88.322 0 6.62275692204e-10)
(-88.3220000004 0 -2.90756760872e-10)
(-88.3220000001 0 -9.59724517127e-11)
(-88.322 0 1.7862879845e-10)
(-88.3220000003 0 -2.88168317421e-11)
(-88.322 0 -4.55313100592e-11)
(-88.3219999997 0 -1.09283377229e-11)
(-88.322 0 7.58466396906e-12)
(-88.322 0 2.41630528748e-11)
(-88.322 0 1.96857950999e-11)
(-88.322 0 -3.10046753464e-12)
(-88.322 0 5.26951697996e-11)
(-88.3220000001 0 -2.15092117494e-10)
(-88.3219999997 0 -2.2875096906e-10)
(-88.3219999999 0 2.00715060334e-11)
(-88.3220000002 0 -2.15964983464e-11)
(-88.322 0 2.84336596798e-11)
(-88.3220000001 0 1.21162447639e-10)
(-88.3219999996 0 1.25011676331e-10)
(-88.3219999995 0 -1.69979521155e-11)
(-88.3220000013 0 4.43996463287e-12)
(-88.3220000011 0 2.22606031714e-11)
(-88.3219999983 0 1.54747969134e-11)
(-88.3219999985 0 6.01866592052e-11)
(-88.3220000004 0 -1.22189510097e-10)
(-88.3220000001 0 1.03672776598e-10)
(-88.3220000001 0 3.4115616031e-12)
(-88.3219999999 0 2.23934932586e-10)
(-88.3220000004 0 2.64970192216e-10)
(-88.322000001 0 3.25276053698e-10)
(-88.3219999995 0 -1.83074687587e-11)
(-88.3219999996 0 1.55626323476e-10)
(-88.3220000003 0 3.54970047317e-10)
(-88.322 0 -2.68150403005e-11)
(-88.322 0 -4.92807532506e-10)
(-88.3219999999 0 -7.04737908366e-10)
(-88.3220000001 0 1.35596854102e-10)
(-88.3219999998 0 7.76925295193e-10)
(-88.3219999999 0 -9.83253475743e-10)
(-88.3220000002 0 -2.76251096756e-10)
(-88.322 0 1.87316172177e-10)
(-88.322 0 3.55400117362e-10)
(-88.322 0 -1.31412332179e-10)
(-88.322 0 2.2610258952e-10)
(-88.322 0 6.14386262169e-11)
(-88.322 0 2.78741813631e-10)
(-88.322 0 -4.30810941191e-11)
(-88.3220000001 0 5.29998622462e-10)
(-88.3219999998 0 5.02347728274e-10)
(-88.3219999997 0 -3.82086353651e-10)
(-88.3220000003 0 -1.0381284858e-10)
(-88.322 0 2.57133114927e-10)
(-88.3220000006 0 -1.77675095841e-11)
(-88.3219999994 0 3.31051929938e-10)
(-88.3219999987 0 -3.67293633707e-10)
(-88.3220000015 0 -5.56412352479e-11)
(-88.3220000016 0 -2.20564143852e-10)
(-88.3219999993 0 1.17346322228e-10)
(-88.322 0 1.19131933793e-10)
(-88.3219999998 0 -3.02809245378e-10)
(-88.322 0 7.11057986902e-10)
(-88.3219999993 0 5.75915174863e-10)
(-88.3219999988 0 3.63030757936e-10)
(-88.3220000002 0 1.54727450214e-10)
(-88.3220000004 0 5.50587061185e-12)
(-88.3220000002 0 -8.80530150696e-11)
(-88.3219999991 0 -1.84664761742e-10)
(-88.322 0 3.52540210942e-10)
(-88.3220000004 0 5.6707691444e-10)
(-88.322 0 -3.2200267032e-11)
(-88.3219999999 0 4.17120607695e-10)
(-88.322 0 3.3188896679e-10)
(-88.322 0 -3.86617876483e-10)
(-88.322 0 7.88516576329e-12)
(-88.3219999999 0 8.56923072562e-11)
(-88.3220000002 0 -3.17736018141e-11)
(-88.3220000003 0 1.47592091096e-10)
(-88.3219999999 0 1.58447024085e-10)
(-88.3219999999 0 -4.42071148403e-10)
(-88.3219999999 0 4.74109762296e-10)
(-88.3219999998 0 3.83941358586e-10)
(-88.3219999998 0 4.72808435588e-10)
(-88.3220000003 0 1.12647867807e-10)
(-88.3220000002 0 -5.94064688321e-10)
(-88.322 0 -2.32287397364e-10)
(-88.3219999999 0 8.30863545017e-10)
(-88.3219999999 0 1.01408875939e-09)
(-88.3220000003 0 -5.75949947672e-10)
(-88.3219999999 0 -5.78343314705e-10)
(-88.3219999998 0 -4.04030303621e-10)
(-88.3219999998 0 -3.59690333004e-11)
(-88.3219999992 0 1.10746567757e-10)
(-88.3219999996 0 -3.85559459312e-10)
(-88.3220000011 0 4.68403977609e-10)
(-88.3220000001 0 6.07579488533e-10)
(-88.3219999992 0 -7.86716182347e-11)
(-88.3220000018 0 -3.47184262057e-10)
(-88.3220000007 0 8.57669304235e-11)
(-88.3219999995 0 1.33335392732e-10)
(-88.3220000002 0 1.06311590818e-10)
(-88.321999999 0 -9.91330333442e-11)
(-88.3220000003 0 -7.08548707341e-12)
(-88.3220000001 0 -5.2525726157e-11)
(-88.3219999999 0 6.06927085175e-12)
(-88.3220000002 0 4.21105706178e-11)
(-88.3219999996 0 3.63557828542e-11)
(-88.322 0 -1.61346117591e-11)
(-88.322 0 9.57402734277e-12)
(-88.322 0 7.14100632306e-12)
(-88.322 0 6.63867517479e-12)
(-88.322 0 1.31782030119e-11)
(-88.3220000001 0 -5.96538091903e-11)
(-88.3219999999 0 2.55320014355e-10)
(-88.3220000001 0 -1.71962144503e-10)
(-88.3220000001 0 -7.0289182599e-11)
(-88.3219999996 0 -1.25079001491e-11)
(-88.3220000002 0 5.47442175382e-11)
(-88.322 0 2.47145631893e-10)
(-88.3219999999 0 -4.09970694339e-10)
(-88.3220000012 0 -4.23072814955e-10)
(-88.3220000002 0 2.94179986324e-10)
(-88.3219999994 0 3.00094383861e-10)
(-88.3220000006 0 3.80862716856e-11)
(-88.3219999985 0 3.67350535024e-10)
(-88.3219999981 0 -7.98198711959e-11)
(-88.3220000002 0 4.07427142838e-10)
(-88.3220000006 0 -2.6453604908e-10)
(-88.3220000008 0 -7.53664572823e-11)
(-88.3220000009 0 -2.3078750656e-10)
(-88.3220000003 0 4.33175090135e-10)
(-88.3219999992 0 2.2041714676e-11)
(-88.3219999986 0 -2.22402468189e-10)
(-88.3220000012 0 3.91426891495e-11)
(-88.3220000003 0 2.30601782627e-11)
(-88.3219999989 0 4.27625684274e-11)
(-88.3220000017 0 -7.19987235308e-11)
(-88.3220000007 0 5.55715107584e-11)
(-88.3219999991 0 -1.45415489304e-10)
(-88.3220000001 0 -1.63153539436e-10)
(-88.3219999999 0 3.99425219764e-10)
(-88.3219999998 0 -3.74506806473e-10)
(-88.322000001 0 -3.51975933759e-10)
(-88.3219999993 0 -6.11997148713e-11)
(-88.3219999985 0 -1.18109701042e-10)
(-88.3219999999 0 -4.55252079043e-12)
(-88.3220000007 0 -1.99692153487e-10)
(-88.3220000018 0 -1.01901942277e-10)
(-88.3220000001 0 2.55096759757e-11)
(-88.3219999984 0 -1.2934335493e-12)
(-88.3219999987 0 1.69187939434e-12)
(-88.3220000011 0 -2.29366870428e-11)
(-88.3220000017 0 -1.3899337123e-13)
(-88.322 0 2.30962146719e-11)
(-88.321999999 0 -7.05226253327e-11)
(-88.3219999991 0 4.30546108929e-11)
(-88.3220000006 0 -2.77636847004e-10)
(-88.3219999997 0 -3.14357435235e-10)
(-88.3219999991 0 -5.24991532959e-10)
(-88.3220000007 0 2.45378326981e-10)
(-88.3220000016 0 -4.07071995749e-10)
(-88.3220000001 0 -3.5689581856e-10)
(-88.321999999 0 7.47586844052e-10)
(-88.3219999999 0 1.85498803361e-10)
(-88.3220000004 0 -1.2200468324e-10)
(-88.3220000004 0 -3.92510170445e-10)
(-88.3219999997 0 -1.37466911413e-10)
(-88.3219999999 0 5.8089822733e-10)
(-88.322 0 -1.3220676065e-10)
(-88.322 0 -9.71827403794e-11)
(-88.322 0 3.67834212969e-11)
(-88.322 0 7.02725818885e-11)
(-88.322 0 -1.55078050444e-10)
(-88.322 0 5.10112480195e-11)
(-88.322 0 3.02028741556e-11)
(-88.3220000001 0 6.51413837128e-12)
(-88.3219999997 0 -8.14195440762e-12)
(-88.322 0 -2.41543995222e-11)
(-88.3220000004 0 2.57041604622e-11)
(-88.322 0 -2.72337496923e-11)
(-88.3219999999 0 9.38125368219e-11)
(-88.3220000001 0 -3.46155774907e-11)
(-88.3220000003 0 6.51624031244e-11)
(-88.3219999999 0 -7.10054613142e-11)
(-88.322 0 4.5690949285e-11)
(-88.3220000001 0 3.23342689081e-10)
(-88.3219999999 0 4.19350057192e-11)
(-88.3219999999 0 8.11399849122e-11)
(-88.3220000001 0 4.5867727153e-10)
(-88.3219999999 0 -4.76119759668e-10)
(-88.3219999998 0 -4.08331232352e-10)
(-88.3219999998 0 7.00068324832e-11)
(-88.3220000001 0 2.22985326686e-10)
(-88.3220000004 0 -9.4970791239e-11)
(-88.322 0 8.04501217822e-11)
(-88.3220000004 0 1.78698831383e-10)
(-88.3219999999 0 -3.34539289299e-10)
(-88.3219999999 0 -5.87954496119e-10)
(-88.322 0 1.99922471232e-10)
(-88.3220000001 0 -4.29516313387e-10)
(-88.3219999999 0 -3.48632086026e-10)
(-88.3220000001 0 3.83216590431e-10)
(-88.3220000004 0 -1.61964449715e-11)
(-88.3219999987 0 -1.13496281028e-10)
(-88.3220000007 0 6.16192055324e-11)
(-88.3220000019 0 -1.45851747224e-10)
(-88.3219999993 0 -1.04562027142e-10)
(-88.3219999993 0 3.36212530073e-10)
(-88.3219999997 0 -4.73876796342e-10)
(-88.3219999999 0 -3.48200867269e-10)
(-88.3219999999 0 -4.58143135895e-10)
(-88.3219999999 0 -1.75898714902e-11)
(-88.3220000001 0 4.11753673972e-10)
(-88.322 0 2.8964945083e-11)
(-88.322 0 -3.63589655706e-10)
(-88.3219999999 0 -6.32442980736e-10)
(-88.3220000003 0 1.70679996897e-10)
(-88.322 0 2.05123846024e-10)
(-88.3219999997 0 1.95647818813e-10)
(-88.3220000002 0 -2.66999993388e-10)
(-88.3219999999 0 -2.70350196959e-10)
(-88.3220000001 0 4.61124558387e-11)
(-88.322 0 -4.50827236793e-10)
(-88.322 0 -4.11654952979e-10)
(-88.3220000002 0 -1.02293656e-10)
(-88.3219999995 0 3.96158252348e-10)
(-88.3219999997 0 -6.75335411555e-11)
(-88.3220000013 0 -7.53008954614e-11)
(-88.3220000014 0 -1.02992389667e-10)
(-88.3219999991 0 -4.46009179797e-11)
(-88.3219999982 0 1.94014083165e-10)
(-88.322 0 -3.56115490789e-11)
(-88.3220000013 0 6.07789699212e-11)
(-88.322 0 -2.83378724745e-11)
(-88.3219999993 0 -1.66294591556e-11)
(-88.3220000004 0 3.34570248907e-11)
(-88.322 0 -1.48670665673e-12)
(-88.3219999996 0 -1.03728494859e-11)
(-88.3220000001 0 -3.26200981302e-11)
(-88.322 0 -2.35837496637e-11)
(-88.3220000001 0 3.95331013516e-11)
(-88.3219999999 0 -1.65896729665e-10)
(-88.3220000001 0 3.62828759776e-11)
(-88.322 0 9.07992704178e-11)
(-88.3219999996 0 -1.3170938078e-10)
(-88.3220000002 0 -1.29845593866e-10)
(-88.322 0 8.31160015687e-11)
(-88.3219999999 0 5.20554762663e-10)
(-88.3220000005 0 5.27114657271e-10)
(-88.3220000002 0 -2.91992175652e-10)
(-88.3219999999 0 -3.14842797009e-10)
(-88.3219999999 0 -1.84469044517e-10)
(-88.3219999996 0 -4.30356224841e-10)
(-88.3219999998 0 1.51398469864e-10)
(-88.3219999992 0 -3.97655007787e-10)
(-88.3219999994 0 3.4547981844e-10)
(-88.3220000012 0 -1.46276668486e-10)
(-88.3220000004 0 1.24683497984e-10)
(-88.3220000002 0 -2.52331934181e-10)
(-88.3220000001 0 -4.52075478866e-12)
(-88.322 0 -4.0315883214e-11)
(-88.322 0 -6.83654689311e-12)
(-88.322 0 -6.74670942771e-11)
(-88.322 0 7.48360606064e-11)
(-88.322 0 3.42928617488e-11)
(-88.322 0 -8.36709776467e-11)
(-88.3220000001 0 1.392961585e-10)
(-88.322 0 1.50562832205e-10)
(-88.322 0 -4.51893775681e-10)
(-88.322 0 5.27275943346e-10)
(-88.322 0 5.32906277204e-10)
(-88.322 0 8.94197584795e-11)
(-88.322 0 1.18394571399e-10)
(-88.322 0 -2.01029164502e-11)
(-88.322 0 7.27304250754e-11)
(-88.322 0 -1.40026211594e-11)
(-88.322 0 5.15935723389e-12)
(-88.322 0 3.98881853033e-12)
(-88.322 0 -2.11984706595e-11)
(-88.322 0 1.59483699006e-11)
(-88.322 0 -4.75252658335e-12)
(-88.322 0 1.20039088263e-10)
(-88.322 0 -4.60584658209e-11)
(-88.322 0 -4.15945163725e-11)
(-88.322 0 5.78464460607e-11)
(-88.322 0 -2.57776065031e-11)
(-88.322 0 2.98403306344e-11)
(-88.322 0 -1.55746611326e-10)
(-88.322 0 4.04326481468e-11)
(-88.322 0 -6.30166466143e-11)
(-88.322 0 -5.44719489493e-11)
(-88.322 0 2.11616271598e-10)
(-88.3220000003 0 -1.15792242986e-10)
(-88.3219999999 0 1.40317049173e-10)
(-88.3219999997 0 -1.63968391039e-10)
(-88.3220000001 0 -7.05855645377e-10)
(-88.322 0 1.45769556747e-10)
(-88.322 0 2.84583062186e-10)
(-88.322 0 -1.25780486308e-11)
(-88.322 0 -7.01103241871e-11)
(-88.322 0 1.61453160911e-10)
(-88.322 0 -7.49523894089e-11)
(-88.322 0 -2.68107676348e-11)
(-88.322 0 -1.90278437115e-11)
(-88.322 0 -5.05828952076e-11)
(-88.322 0 1.17582338272e-10)
(-88.3219999999 0 -1.18517747683e-11)
(-88.3220000002 0 1.6977191051e-10)
(-88.3220000003 0 -4.40744280361e-11)
(-88.3219999996 0 -6.2253976335e-11)
(-88.321999999 0 -1.37240735637e-10)
(-88.321999999 0 6.72026997457e-11)
(-88.3220000017 0 1.15697510398e-10)
(-88.3220000019 0 -2.42533507848e-10)
(-88.3219999995 0 -1.00433970217e-10)
(-88.3220000001 0 -6.97429115319e-11)
(-88.3219999994 0 -9.32323428133e-11)
(-88.3219999998 0 3.91433468735e-11)
(-88.3219999994 0 5.80309338943e-11)
(-88.3219999993 0 -9.67877274112e-10)
(-88.3220000005 0 -7.69007216037e-10)
(-88.322 0 -2.27828743291e-10)
(-88.3219999997 0 1.02600669069e-10)
(-88.322 0 1.17013815713e-10)
(-88.3219999999 0 -1.40051527477e-10)
(-88.322 0 -4.45557968883e-11)
(-88.3219999998 0 5.67231607373e-11)
(-88.3219999999 0 5.04810907212e-11)
(-88.3220000002 0 -1.0712570528e-10)
(-88.322 0 -1.18938767483e-10)
(-88.322 0 -3.50585680033e-11)
(-88.322 0 -5.27379423758e-11)
(-88.322 0 -1.64226884026e-12)
(-88.3219999999 0 -1.94360915269e-11)
(-88.3220000001 0 -5.15460374264e-12)
(-88.3220000001 0 -2.18588466878e-11)
(-88.3219999999 0 -2.78311128392e-11)
(-88.322 0 -3.51460435147e-11)
(-88.322 0 -2.84516455628e-11)
(-88.322 0 -7.41863973879e-12)
(-88.322 0 4.28718848941e-11)
(-88.322 0 -1.61657307449e-10)
(-88.3219999999 0 -6.55467982336e-11)
(-88.3219999999 0 4.39405947124e-10)
(-88.322 0 3.15823944213e-10)
(-88.3220000001 0 -4.40251083579e-10)
(-88.3220000001 0 -3.40934000885e-10)
(-88.322 0 -1.18591000171e-10)
(-88.3219999999 0 5.82349174593e-11)
(-88.3220000001 0 -1.45741566777e-10)
(-88.3220000002 0 1.07276323054e-10)
(-88.322 0 -1.42217487031e-10)
(-88.3220000001 0 -3.94844392186e-10)
(-88.3219999997 0 -2.966646862e-10)
(-88.3219999991 0 1.95518931997e-10)
(-88.3220000014 0 -3.96280418991e-10)
(-88.3220000015 0 -4.40317362684e-10)
(-88.3219999992 0 -4.00007479532e-10)
(-88.3219999999 0 4.25151080698e-10)
(-88.3219999995 0 3.29486335821e-10)
(-88.3219999992 0 -3.58999179156e-10)
(-88.3220000002 0 -2.43960073684e-10)
(-88.322 0 4.86353862876e-10)
(-88.322 0 1.02473197543e-10)
(-88.322 0 -3.13920168239e-10)
(-88.322 0 -5.17031161862e-10)
(-88.322 0 2.38917027939e-10)
(-88.3220000001 0 -2.34301780034e-10)
(-88.3219999999 0 -6.49171788498e-11)
(-88.3219999998 0 -4.95304412793e-10)
(-88.322 0 4.22731457771e-10)
(-88.3220000001 0 -1.03124380301e-10)
(-88.322 0 5.69118758831e-11)
(-88.3220000005 0 2.25462158244e-10)
(-88.3219999998 0 -3.62390330613e-10)
(-88.3219999994 0 -8.59115213579e-10)
(-88.322000001 0 -1.01191783877e-09)
(-88.3220000007 0 -3.64192069496e-10)
(-88.3219999996 0 9.13654388514e-10)
(-88.3219999998 0 5.37688176953e-10)
(-88.3219999993 0 -7.24669429832e-11)
(-88.3219999995 0 -6.23164977394e-10)
(-88.3220000012 0 6.69360268168e-10)
(-88.322000001 0 -2.45136257241e-11)
(-88.3219999996 0 -1.65718480706e-10)
(-88.3219999995 0 -1.84304776416e-11)
(-88.322 0 1.03984983034e-10)
(-88.3220000006 0 5.83236636298e-11)
(-88.3220000003 0 1.94693320255e-10)
(-88.3219999996 0 -2.05653766015e-10)
(-88.3219999999 0 1.51833357198e-10)
(-88.3220000004 0 -2.41819800748e-10)
(-88.3220000003 0 1.80243257701e-10)
(-88.3219999999 0 2.17089399714e-10)
(-88.322 0 -1.90214572109e-10)
(-88.3219999999 0 -3.89764495357e-10)
(-88.322 0 -1.42342554624e-10)
(-88.322 0 -4.35908261872e-10)
(-88.322 0 -4.320058457e-10)
(-88.322 0 -1.7264629194e-10)
(-88.322 0 7.531739916e-11)
(-88.322 0 3.15726207265e-11)
(-88.322 0 8.60285272305e-11)
(-88.3219999999 0 -3.12040837491e-10)
(-88.3220000003 0 -6.47164517339e-10)
(-88.3220000002 0 2.97849728519e-10)
(-88.3219999988 0 3.04161510039e-10)
(-88.3219999992 0 7.13533258271e-10)
(-88.3220000018 0 -4.25382107165e-10)
(-88.3220000013 0 -3.80641907882e-10)
(-88.3219999994 0 2.77449714914e-10)
(-88.3219999993 0 2.64943764224e-10)
(-88.322 0 2.6457772244e-10)
(-88.322 0 1.03366644065e-10)
(-88.3220000001 0 2.71639345609e-10)
(-88.322000001 0 9.99239521658e-11)
(-88.3220000002 0 2.20028983241e-11)
(-88.3219999988 0 8.77208525409e-11)
(-88.3220000002 0 -1.20370804945e-10)
(-88.3220000012 0 -3.74868220667e-10)
(-88.3220000003 0 4.92792414826e-10)
(-88.3219999981 0 7.06165995908e-10)
(-88.3219999982 0 4.34048114176e-10)
(-88.3220000016 0 6.86472012283e-10)
(-88.3220000011 0 -4.30095854471e-10)
(-88.3219999984 0 -2.29370414986e-11)
(-88.3219999993 0 1.29459669525e-11)
(-88.3220000016 0 -5.13111588971e-11)
(-88.3220000012 0 5.0938907783e-11)
(-88.3219999989 0 -7.68938175901e-11)
(-88.3219999994 0 3.48051485244e-11)
(-88.3220000005 0 -1.04243350051e-10)
(-88.3220000005 0 -2.62288168349e-10)
(-88.3219999989 0 2.13358118919e-10)
(-88.3219999991 0 2.94525783852e-10)
(-88.322000001 0 3.79233457685e-10)
(-88.3219999995 0 -3.21980377427e-10)
(-88.3220000004 0 -3.30752276975e-10)
(-88.322000001 0 5.93464133754e-10)
(-88.3220000003 0 7.24972142859e-11)
(-88.3220000008 0 1.03564385837e-10)
(-88.3219999982 0 3.36799164415e-10)
(-88.3219999978 0 5.14690356103e-10)
(-88.322000002 0 5.85609642772e-10)
(-88.3220000016 0 -2.09028110222e-10)
(-88.3219999983 0 -3.18714749361e-10)
(-88.3219999981 0 -1.84242838629e-10)
(-88.3220000009 0 4.15624875257e-10)
(-88.3220000005 0 3.5792166851e-10)
(-88.3219999994 0 2.72956803517e-10)
(-88.322 0 -1.58775178365e-10)
(-88.3219999999 0 -1.96475372865e-10)
(-88.3220000003 0 1.13937381642e-10)
(-88.322 0 -2.38959719312e-11)
(-88.3219999999 0 -4.95396814365e-11)
(-88.3219999999 0 -9.14311238991e-11)
(-88.3219999993 0 9.73430284839e-11)
(-88.3220000007 0 8.02408588157e-11)
(-88.3220000012 0 3.15136699262e-11)
(-88.3219999999 0 -2.81708447211e-11)
(-88.322 0 -2.5016738576e-10)
(-88.3220000004 0 -3.27431226388e-11)
(-88.3219999996 0 -7.13450496071e-11)
(-88.3219999991 0 -8.71592765457e-11)
(-88.3219999995 0 6.21176582728e-11)
(-88.322 0 -8.50834462647e-11)
(-88.3220000007 0 -1.1197711103e-11)
(-88.3220000015 0 3.96534926113e-12)
(-88.3219999989 0 -6.49876970303e-11)
(-88.3219999981 0 1.80376482766e-10)
(-88.321999999 0 9.74763704154e-12)
(-88.3220000014 0 -3.17864168944e-10)
(-88.3220000022 0 -2.15865914978e-10)
(-88.3219999988 0 3.13568592432e-10)
(-88.3219999987 0 4.2642895592e-10)
(-88.322 0 1.23648885356e-10)
(-88.3220000001 0 -4.44649803457e-11)
(-88.3220000001 0 1.50034912675e-10)
(-88.3220000002 0 -7.84642861109e-11)
(-88.3220000005 0 1.52476070371e-10)
(-88.3220000001 0 3.95479376114e-10)
(-88.322 0 2.97099400585e-10)
(-88.3219999999 0 -1.95882969277e-10)
(-88.3220000002 0 4.79308001654e-10)
(-88.3219999995 0 2.86536256382e-10)
(-88.3219999992 0 5.78326547634e-10)
(-88.322 0 -4.77474461482e-10)
(-88.3220000012 0 -3.25281394154e-10)
(-88.3220000006 0 4.95226171764e-10)
(-88.3219999994 0 2.22731204883e-10)
(-88.322 0 -4.86480543917e-10)
(-88.322 0 -9.54501139913e-11)
(-88.3220000001 0 3.00906308544e-10)
(-88.322 0 5.35840079439e-10)
(-88.322 0 -3.65845083985e-10)
(-88.3220000007 0 2.18216594684e-10)
(-88.3219999993 0 3.66106079152e-11)
(-88.3219999986 0 4.99943669694e-10)
(-88.3219999997 0 -4.45290210267e-10)
(-88.3220000014 0 2.34350872783e-11)
(-88.3220000015 0 1.21298852175e-10)
(-88.3219999986 0 -4.67117706007e-10)
(-88.321999999 0 1.06644972416e-10)
(-88.3220000003 0 6.95613317043e-10)
(-88.3220000005 0 6.62117682904e-10)
(-88.3219999999 0 3.91979502211e-10)
(-88.3219999992 0 -4.10151450835e-10)
(-88.3220000012 0 -5.55532761729e-10)
(-88.322000001 0 4.71543267048e-10)
(-88.3219999995 0 4.2856331094e-10)
(-88.3219999997 0 -3.43002878109e-10)
(-88.322 0 -4.73387731365e-10)
(-88.3219999999 0 1.18228201558e-10)
(-88.322 0 -1.61897197537e-10)
(-88.322 0 -3.04054511844e-11)
(-88.322 0 9.68115266622e-11)
(-88.322 0 -1.65433872686e-10)
(-88.322 0 1.77504184412e-10)
(-88.322 0 -8.27563118548e-11)
(-88.322 0 1.49217981854e-10)
(-88.322 0 -1.91254525771e-10)
(-88.322 0 -1.1247090127e-10)
(-88.3220000001 0 -1.74446471011e-10)
(-88.3220000004 0 1.36292625471e-11)
(-88.322 0 3.09211317544e-10)
(-88.3219999996 0 1.63148898953e-10)
(-88.3220000001 0 -1.17842872932e-10)
(-88.3219999998 0 -2.47701594086e-10)
(-88.322 0 1.08648590524e-10)
(-88.3220000001 0 1.49763843231e-10)
(-88.3219999998 0 -1.80697730156e-10)
(-88.322 0 3.41843900012e-10)
(-88.322 0 6.40933662224e-10)
(-88.3220000001 0 -2.81343249647e-10)
(-88.3219999998 0 -3.14728577534e-10)
(-88.3219999997 0 -7.32034106182e-10)
(-88.3220000005 0 3.52152117618e-10)
(-88.322 0 3.5075381519e-10)
(-88.3219999998 0 -2.96931701653e-10)
(-88.3220000001 0 -2.67398529375e-10)
(-88.322 0 -2.93664315045e-10)
(-88.322 0 -1.87725328479e-10)
(-88.322 0 -2.00516782597e-10)
(-88.322 0 -9.85838516363e-11)
(-88.322 0 9.22657522951e-11)
(-88.322 0 1.08597497973e-10)
(-88.3219999998 0 -1.38903833628e-10)
(-88.3220000002 0 2.97542311682e-10)
(-88.3220000002 0 -2.89475633369e-10)
(-88.3219999996 0 -5.88296751909e-10)
(-88.322 0 -4.78068782163e-10)
(-88.3219999998 0 -9.57724122339e-11)
(-88.3220000001 0 -9.2715600545e-11)
(-88.3220000004 0 -4.28261037713e-10)
(-88.3219999999 0 2.28166315325e-10)
(-88.322 0 3.14647287923e-10)
(-88.322 0 -3.56051023387e-10)
(-88.3220000002 0 3.78154030418e-11)
(-88.3220000001 0 -4.77160595941e-10)
(-88.3219999998 0 -4.21990299961e-10)
(-88.322 0 9.53031752381e-11)
(-88.3219999999 0 -6.95395077896e-10)
(-88.322 0 -4.101257629e-10)
(-88.3219999999 0 -4.22049928997e-10)
(-88.3220000006 0 2.14284761028e-10)
(-88.3220000005 0 2.90052907799e-10)
(-88.3219999988 0 -4.91448998579e-10)
(-88.3219999992 0 -8.45734538075e-11)
(-88.3220000013 0 -4.37063146743e-10)
(-88.3220000003 0 2.5656055127e-10)
(-88.3219999997 0 -4.26635326205e-10)
(-88.3220000003 0 -8.1128439371e-10)
(-88.3219999998 0 -2.0792297893e-10)
(-88.3219999999 0 6.80204306555e-11)
(-88.322 0 2.76407121322e-10)
(-88.322 0 3.30207011972e-11)