/*--------------------------------*- C++ -*----------------------------------*\
  =========                 |
  \\      /  F ield         | OpenFOAM: The Open Source CFD Toolbox
   \\    /   O peration     | Website:  https://openfoam.org
    \\  /    A nd           | Version:  6
     \\/     M anipulation  |
\*---------------------------------------------------------------------------*/
FoamFile
{
    version     2.0;
    format      ascii;
    class       volScalarField;
    location    "4.59e-05";
    object      p;
}
// * * * * * * * * * * * * * * * * * * * * * * * * * * * * * * * * * * * * * //

dimensions      [1 -1 -2 0 0 0 0];

internalField   nonuniform List<scalar> 
8192
(
6000000.00051
5999999.99945
6000000.00053
6000000.00059
6000000.00411
5999999.99757
6000000.0013
5999999.99991
6000000.00007
5999999.9998
6000000.00027
5999999.99978
6000000.00064
6000000.00143
6000000.00073
6000000.00046
6000000.00061
5999999.99864
5999999.99894
6000000.00066
5999999.99849
5999999.99725
6000000.00176
5999999.99978
5999999.99958
6000000.0001
5999999.99864
5999999.99926
5999999.99823
5999999.99939
6000000.00013
6000000.00034
5999999.99677
5999999.99364
6000000.00771
6000000.00765
5999999.99901
6000000.00464
5999999.99926
5999999.99752
6000000.00278
5999999.99815
6000000.00001
5999999.99991
6000000.00028
6000000.00021
6000000.00001
6000000.00011
5999999.99911
6000000.0013
5999999.99743
6000000.0003
6000000.00283
5999999.99636
5999999.99709
6000000.00146
6000000.00005
6000000.0029
5999999.9998
6000000.00511
5999999.99684
5999999.99771
5999999.99726
6000000.00188
6000000.00041
6000000.00182
5999999.99958
6000000.00358
5999999.99613
6000000.00286
5999999.99883
5999999.99732
6000000.00259
6000000.00285
6000000.00687
5999999.99674
5999999.99422
6000000.00651
6000000.00254
5999999.99553
5999999.99495
5999999.99272
6000000.00317
6000000.00586
6000000.00008
5999999.99899
6000000.00646
6000000.00481
5999999.99801
5999999.99716
5999999.99882
5999999.99836
5999999.99723
6000000.00371
5999999.99717
6000000.00184
6000000.00157
5999999.99948
6000000.00375
5999999.99825
5999999.99967
5999999.99988
5999999.99971
6000000.00012
5999999.99915
6000000.00029
6000000.00012
6000000
5999999.99998
5999999.99998
6000000.00005
6000000.00014
5999999.99958
6000000.00059
5999999.99979
6000000.00106
6000000.00011
5999999.99895
6000000.00081
5999999.99936
5999999.99928
5999999.999
6000000.00002
5999999.99942
6000000.00019
5999999.99956
6000000.00034
6000000.0003
6000000.00557
6000000.00061
5999999.99785
6000000.00061
5999999.99902
5999999.99943
5999999.99998
5999999.99986
6000000.00039
6000000.00085
5999999.99852
6000000.00369
6000000.00085
6000000.00324
6000000.00445
5999999.99686
5999999.99649
5999999.99809
6000000.00217
6000000.00234
5999999.99992
5999999.99989
5999999.99887
6000000.00066
5999999.99517
6000000.00099
5999999.99661
5999999.99648
6000000.00134
6000000.0005
5999999.99868
5999999.99912
5999999.99979
5999999.99955
6000000.00027
6000000.00052
5999999.99965
6000000.00226
6000000.00019
6000000.00099
5999999.99835
6000000.00051
5999999.99775
6000000.003
6000000.00217
6000000.00282
6000000.00193
6000000.00411
6000000.00238
6000000.00081
5999999.99437
6000000.00258
6000000.00134
5999999.99829
6000000.00075
5999999.99796
6000000.00262
6000000.00124
6000000.00214
5999999.99403
5999999.99241
6000000.00183
6000000.00635
6000000.0042
5999999.99934
5999999.9997
6000000.0006
6000000.00011
5999999.99992
6000000.00001
5999999.99997
6000000.00001
6000000.00015
6000000.00002
6000000.00008
5999999.99789
5999999.99769
6000000.00263
5999999.99926
5999999.99996
6000000.00005
5999999.99998
6000000.0001
6000000.00022
6000000.00022
5999999.99945
5999999.99994
6000000.00003
5999999.99981
5999999.99998
5999999.99987
5999999.99648
6000000.00044
6000000.00146
5999999.99709
6000000.00091
6000000.007
5999999.99399
5999999.99671
6000000.00537
6000000.00867
5999999.99173
5999999.99585
6000000.00167
6000000.00379
5999999.99593
6000000.00292
6000000.00013
6000000.00437
5999999.99821
6000000.00719
6000000.00367
5999999.99244
6000000.00039
6000000.00581
5999999.99799
6000000.00513
5999999.99445
5999999.99881
6000000.00173
6000000.00275
6000000.0034
6000000.00056
6000000.00214
6000000.0008
5999999.99895
5999999.99942
5999999.99917
5999999.9998
5999999.99889
6000000.00044
5999999.99822
6000000.00248
5999999.99862
5999999.99974
5999999.99938
5999999.99979
5999999.99992
5999999.99993
6000000.00099
6000000.00152
5999999.99707
6000000.00048
6000000.00084
6000000.00006
6000000.00241
5999999.99504
5999999.99735
6000000.00537
6000000.00138
5999999.99619
5999999.99525
5999999.99917
5999999.99502
5999999.99826
5999999.99486
6000000.0014
6000000.00467
5999999.99645
6000000.00057
5999999.9991
6000000.00135
5999999.99971
5999999.99921
6000000.00165
5999999.99756
6000000.00147
6000000.00002
6000000.00003
6000000.00016
6000000.00001
6000000.00001
6000000.00002
6000000.00019
5999999.99889
6000000.00141
5999999.99729
5999999.99979
5999999.99881
6000000.00122
6000000.00499
5999999.99835
5999999.99435
6000000.0026
6000000.00576
5999999.99812
6000000.00351
5999999.99822
6000000.00608
5999999.99687
5999999.99709
5999999.99661
6000000.00229
6000000.00178
5999999.99608
6000000.00182
6000000.00076
6000000.00045
6000000.00074
5999999.99918
6000000.00007
6000000.00038
5999999.9985
6000000.00267
6000000.00231
6000000.00094
6000000.00015
5999999.99966
5999999.99743
5999999.99775
6000000.00055
6000000.00073
5999999.99985
5999999.99871
5999999.99811
6000000.00092
5999999.99679
6000000.00072
5999999.99698
5999999.99377
5999999.99647
6000000.00311
5999999.99764
5999999.99623
6000000.00734
5999999.99874
6000000.00297
6000000.00015
5999999.99724
6000000.0039
5999999.99621
6000000.00321
5999999.99971
5999999.99956
6000000.00054
6000000
6000000.00035
6000000.0001
6000000.00039
6000000.00168
5999999.99839
6000000.00288
6000000.00093
5999999.99797
6000000.00169
5999999.99987
5999999.99983
6000000.00403
5999999.99856
6000000.0032
6000000.00316
5999999.99361
5999999.99315
5999999.99576
5999999.99881
6000000.00082
6000000.0017
6000000.00219
5999999.99508
5999999.99173
6000000.00159
5999999.9965
5999999.99862
6000000.00542
5999999.99847
5999999.99888
6000000.00175
5999999.99716
5999999.99798
6000000.00656
5999999.99602
5999999.99891
5999999.99349
6000000.00141
6000000.00526
5999999.99997
5999999.99799
5999999.99131
6000000.00351
5999999.99955
6000000.00399
5999999.99837
5999999.99701
6000000.00263
5999999.99503
5999999.99405
6000000.00017
6000000.00296
5999999.9982
5999999.99787
5999999.99758
6000000.00184
6000000.00196
5999999.99822
6000000.0016
5999999.99869
5999999.99933
6000000.00059
5999999.99959
5999999.99991
6000000.00004
6000000.00008
6000000.00102
5999999.99675
6000000.00101
6000000.00017
5999999.99952
5999999.99733
6000000.00136
6000000.00061
5999999.99875
6000000.00098
6000000.00113
5999999.99813
5999999.99921
6000000.00028
5999999.99948
5999999.99742
5999999.99708
5999999.99878
5999999.99625
6000000.00198
6000000.00189
6000000.00055
6000000.00034
5999999.9994
6000000.00227
5999999.99812
6000000.00288
6000000.00211
5999999.99527
6000000.0044
6000000.00143
6000000.00048
6000000.00079
5999999.99856
6000000.00201
5999999.99959
5999999.99936
6000000.00066
6000000.00018
5999999.99968
5999999.99786
6000000.00321
5999999.99738
5999999.99961
6000000.00135
5999999.99734
6000000.00302
5999999.99701
6000000.0019
5999999.99913
5999999.99984
5999999.99789
6000000.00264
6000000.00637
5999999.99809
5999999.99809
6000000.00051
6000000.00254
5999999.99867
5999999.99798
6000000.00468
5999999.9984
5999999.99988
5999999.99984
6000000.00066
6000000.0029
5999999.99776
6000000.00383
5999999.99852
5999999.99869
6000000.00173
5999999.99997
5999999.99984
6000000.00286
6000000.00095
6000000.00234
5999999.99919
5999999.99881
5999999.99946
5999999.99699
5999999.99539
6000000.00229
6000000.00073
5999999.99875
5999999.99964
5999999.99914
6000000.00002
5999999.99871
6000000.00046
5999999.99946
6000000.00023
6000000
6000000
6000000.00003
5999999.99925
6000000.00034
6000000.00006
5999999.99988
5999999.99989
5999999.99981
6000000.0001
6000000.00014
5999999.99986
5999999.99989
5999999.99982
6000000.00002
5999999.99981
5999999.99992
5999999.99979
5999999.99975
6000000.00001
6000000
5999999.99981
5999999.99998
6000000.00001
5999999.99994
5999999.99865
6000000.00262
5999999.99822
5999999.9994
5999999.99942
5999999.99951
6000000.00004
5999999.99998
6000000.00001
6000000.00003
6000000.00069
6000000.00023
6000000.00002
6000000.00005
5999999.99963
5999999.99765
6000000.0026
6000000.00206
5999999.99902
5999999.99414
5999999.99255
6000000.00185
6000000.005
6000000.00172
6000000.00411
5999999.99671
6000000.00452
5999999.99385
6000000.00074
5999999.99659
6000000.00046
6000000.00024
6000000.00224
5999999.99919
6000000.00155
5999999.9974
6000000.00118
6000000
6000000.00004
6000000.00026
6000000.00017
5999999.99993
5999999.99944
6000000.0021
5999999.99981
6000000.00001
6000000.00002
5999999.99992
5999999.99993
6000000.00004
6000000.00031
5999999.99945
5999999.99917
5999999.99912
5999999.99888
5999999.99977
5999999.99883
5999999.99766
6000000.00129
6000000.00076
6000000.0007
6000000.00189
5999999.99782
5999999.99719
6000000.00772
6000000.00351
6000000.001
6000000.00342
5999999.99744
5999999.99922
6000000.00039
5999999.99979
6000000.00039
6000000.00006
6000000.00055
6000000.0001
6000000.00195
5999999.99919
5999999.99882
6000000.00013
5999999.99967
6000000.0002
6000000.00473
5999999.99985
5999999.99762
6000000.00313
6000000.00173
6000000.00087
6000000.0009
5999999.99738
5999999.99833
6000000.0047
6000000.00447
6000000.00278
5999999.99779
5999999.99769
6000000.00251
5999999.99973
5999999.99839
5999999.99756
6000000.00311
6000000.00212
6000000.00012
6000000.00135
5999999.99864
6000000.00092
5999999.99956
6000000.00059
6000000.0006
6000000.00051
6000000.00073
5999999.99939
5999999.99905
6000000.00154
6000000.00135
5999999.99344
5999999.99515
6000000.00356
6000000.00132
5999999.99986
5999999.99847
6000000.00259
5999999.99756
6000000.00084
6000000.00149
6000000.00247
5999999.99376
6000000.0029
6000000.00176
6000000.00511
5999999.99519
5999999.99753
6000000.00141
6000000.00104
5999999.99452
5999999.99848
6000000.00338
6000000.00594
5999999.99889
6000000.00177
6000000.00136
6000000.00451
5999999.99714
6000000.00118
6000000.00168
5999999.99601
6000000.00327
6000000.00306
6000000.00566
6000000.00887
5999999.9951
5999999.99779
6000000.00407
6000000.00629
5999999.99413
5999999.99408
6000000.00236
5999999.99764
6000000.00001
6000000.00049
5999999.99703
6000000.00244
5999999.99767
6000000.00125
5999999.99703
5999999.99535
6000000.0029
6000000.00348
5999999.99905
6000000.00349
6000000.00158
6000000.00054
5999999.9995
5999999.99967
5999999.9982
6000000.00391
6000000.00772
5999999.99641
5999999.99878
5999999.99208
6000000.00523
6000000.00653
5999999.99585
5999999.9969
5999999.99615
5999999.99768
5999999.99626
6000000.00038
5999999.99938
6000000.00066
5999999.99952
5999999.99949
6000000.0029
5999999.99516
5999999.99543
5999999.99648
6000000.0057
6000000.00011
5999999.99941
6000000.001
5999999.99955
6000000.00212
5999999.99946
6000000.00155
6000000.00615
5999999.99615
5999999.99497
5999999.99378
6000000.0026
6000000.00246
5999999.99309
5999999.99756
5999999.9967
6000000.0014
5999999.99853
5999999.99416
6000000.00415
6000000.00364
6000000.00009
6000000.00089
6000000
6000000.00019
6000000.00017
6000000.0001
6000000.00001
5999999.99998
5999999.99992
5999999.99988
6000000.00015
6000000.00011
5999999.99911
6000000.00147
6000000.00514
6000000.0002
6000000.00045
6000000.00221
5999999.99924
6000000.00262
6000000.0006
5999999.9997
5999999.99994
5999999.99981
6000000.00156
5999999.9977
5999999.99747
6000000.0013
5999999.99744
6000000.00073
5999999.99927
5999999.99982
5999999.99971
6000000
5999999.99985
6000000.00003
6000000.00002
5999999.99746
6000000.0028
5999999.99894
5999999.99935
5999999.99987
5999999.99711
6000000.0009
6000000.00073
6000000.00004
6000000.00029
5999999.99886
6000000.00316
5999999.99988
6000000
6000000.00051
5999999.99949
6000000.0004
5999999.99821
6000000.00463
6000000.00307
5999999.99634
5999999.99812
6000000.00224
5999999.99806
6000000.00317
5999999.99947
6000000.00001
6000000.00001
5999999.99972
6000000.0001
5999999.99951
6000000.00108
5999999.9976
6000000.00178
6000000.00084
6000000.0007
5999999.99967
6000000.00038
5999999.9972
6000000.00641
6000000.00309
5999999.9949
6000000.00151
6000000.00323
6000000.00417
5999999.99671
5999999.99546
6000000.00281
5999999.99874
5999999.99965
6000000.00008
5999999.99994
5999999.99992
5999999.99998
6000000.00002
5999999.99989
5999999.99993
5999999.99988
6000000.00011
5999999.99884
6000000.00168
5999999.99758
5999999.99948
6000000.00138
5999999.99422
6000000.00465
6000000.00476
6000000.00171
5999999.99912
6000000.00338
6000000.00502
5999999.99761
5999999.99643
6000000.00366
5999999.99971
6000000.00334
6000000.00497
6000000.00055
6000000.00598
6000000.00004
5999999.99975
6000000.001
6000000.00061
5999999.99988
5999999.99999
6000000.0034
5999999.99873
6000000.00111
6000000.0019
6000000.00323
6000000.00214
5999999.99409
6000000.00125
6000000.00047
6000000.0001
5999999.99923
6000000.00508
6000000.00266
5999999.99827
6000000.00255
6000000.00002
5999999.99983
6000000.00068
5999999.99933
6000000.00175
5999999.99341
6000000.00291
6000000.00183
5999999.99961
5999999.99937
6000000.0001
6000000.00065
6000000.00013
6000000.00003
6000000.00002
6000000.00001
6000000.00001
5999999.99989
6000000.00001
5999999.99981
6000000.00001
6000000.00008
5999999.99942
6000000.00075
6000000.00003
5999999.99981
5999999.99985
6000000.00003
5999999.99894
5999999.99999
6000000.00031
6000000.00068
5999999.998
5999999.99824
6000000.00095
6000000.00111
5999999.99942
6000000.00067
5999999.99865
6000000.00234
6000000.00189
6000000.00057
6000000.00034
5999999.99949
5999999.99879
6000000.00217
5999999.99519
6000000.00673
5999999.99668
5999999.99525
6000000.00436
6000000.00365
6000000.00534
6000000.00003
6000000.00013
5999999.99572
5999999.99497
5999999.99605
6000000.0014
5999999.99767
6000000.00457
5999999.99955
5999999.99796
6000000.00072
5999999.9978
6000000.00131
5999999.99803
6000000.00458
5999999.99424
5999999.99645
6000000.00492
5999999.99559
5999999.99692
5999999.99839
6000000.00131
6000000.00127
6000000.00093
6000000.00002
6000000.00097
6000000.00007
6000000.00204
5999999.99602
6000000.00136
6000000.00082
5999999.99989
5999999.99782
5999999.99973
5999999.99969
5999999.99775
5999999.99892
6000000.00097
5999999.99996
6000000.00117
6000000.0018
5999999.99823
5999999.99895
6000000.0037
5999999.99933
5999999.99988
5999999.99998
6000000.00001
6000000.00001
6000000.00014
6000000.00002
5999999.99999
6000000.00032
6000000.00045
5999999.99694
6000000.00037
5999999.99994
5999999.99978
6000000.00004
6000000.00031
5999999.99817
6000000.0028
6000000.00193
5999999.99499
6000000.00678
5999999.99384
5999999.99257
6000000.00318
6000000.00551
5999999.99295
5999999.99772
5999999.99779
5999999.99968
6000000.0017
5999999.9984
6000000.001
5999999.99683
5999999.99753
5999999.99993
5999999.99818
6000000.00232
5999999.99737
6000000.00183
6000000.00314
5999999.99537
5999999.99656
5999999.99525
5999999.99969
6000000.00465
6000000.00163
5999999.99626
5999999.99299
6000000.00402
6000000.00324
5999999.99465
5999999.99874
6000000.00496
6000000.00408
5999999.99744
5999999.99833
6000000.00344
5999999.99985
6000000.00002
6000000.00001
5999999.99999
6000000.00041
6000000.00152
5999999.99866
5999999.9985
5999999.99919
5999999.99998
6000000.00087
5999999.99991
6000000.00035
5999999.99864
5999999.99797
6000000.00126
6000000.00026
6000000.00004
6000000.00002
6000000.00001
5999999.99992
5999999.99996
6000000.00011
5999999.99964
5999999.99863
6000000.0002
6000000.00253
5999999.9979
5999999.99986
5999999.99995
5999999.99573
6000000.00117
6000000.00062
6000000.00333
6000000.00143
6000000.00002
6000000.00072
6000000.0004
5999999.99779
6000000.00324
5999999.99741
6000000.00239
6000000.00135
6000000.0043
5999999.99973
5999999.99962
6000000.00595
6000000.00243
6000000.0026
6000000.00179
5999999.99606
5999999.99903
6000000.00215
6000000.00012
5999999.99742
5999999.99782
6000000.00163
5999999.99696
5999999.99935
5999999.99743
6000000.00022
6000000.00212
5999999.99898
5999999.99895
5999999.99872
5999999.99986
5999999.99978
6000000.0007
6000000.00019
6000000.00025
5999999.99933
6000000.00124
6000000.00149
5999999.99761
6000000.00003
6000000.00011
6000000.00002
6000000.00011
6000000.00006
6000000.00046
6000000.00111
5999999.99849
6000000.00204
6000000.00139
5999999.99687
6000000.00431
5999999.99508
5999999.99907
6000000.00269
6000000.00656
6000000.00312
6000000.00176
6000000.00162
5999999.99351
5999999.99751
5999999.99838
5999999.99956
6000000.00256
6000000.00509
5999999.99373
5999999.9971
5999999.99462
6000000.00592
6000000.0028
6000000.00262
5999999.99901
6000000.00058
6000000.0008
6000000.00149
5999999.99953
5999999.99909
5999999.99969
6000000
6000000
6000000.00065
5999999.9992
6000000.00093
5999999.99939
6000000.00015
5999999.99885
5999999.99597
6000000.00233
6000000.00085
5999999.99582
5999999.99531
6000000.00598
5999999.99789
5999999.99567
6000000.00178
6000000.00645
5999999.99519
6000000.00364
5999999.99905
5999999.99873
6000000.00444
5999999.99964
6000000.00014
5999999.99999
6000000
6000000.00007
6000000.00001
6000000.00007
6000000.00002
6000000.00007
6000000.0002
6000000.00025
6000000.00003
6000000.00003
5999999.99975
6000000.00062
6000000.00159
5999999.99623
6000000.00343
6000000.00516
5999999.99853
6000000.00162
6000000.00152
6000000.00174
5999999.99949
6000000.00044
5999999.99346
6000000.00099
5999999.99921
6000000.00149
6000000.00185
5999999.99893
5999999.99874
5999999.99922
5999999.99935
6000000.00016
5999999.9989
6000000.00102
6000000.00218
5999999.99861
5999999.99949
5999999.99933
6000000.00057
6000000.00008
6000000.00001
5999999.99996
5999999.99945
6000000.00049
5999999.9994
5999999.9977
6000000.00313
5999999.99691
6000000.00175
5999999.99926
5999999.99951
5999999.99974
5999999.99929
6000000.00195
5999999.99535
6000000.00206
5999999.9994
5999999.99957
6000000.00003
5999999.99944
5999999.99989
5999999.99987
6000000.00064
5999999.999
5999999.99923
6000000
5999999.99993
5999999.99992
5999999.99998
6000000.00009
5999999.99993
5999999.99984
6000000.00001
5999999.99989
5999999.9999
6000000.00001
5999999.99981
6000000.0008
5999999.99991
6000000.00013
6000000.00013
6000000.00105
5999999.99859
6000000.00187
5999999.99699
6000000.00192
6000000.00125
6000000.00198
6000000.00247
5999999.99691
5999999.99955
5999999.99839
6000000.00179
5999999.99913
5999999.99779
6000000.00093
5999999.99873
5999999.99937
5999999.9998
6000000.00034
6000000.00364
6000000.00128
6000000.00332
5999999.99884
6000000.00028
6000000.00205
5999999.9954
6000000.00126
5999999.9968
6000000.00433
6000000.00247
5999999.99486
5999999.99539
5999999.99532
6000000.00528
6000000.00196
6000000.00592
5999999.99695
5999999.99733
6000000.00092
5999999.99449
5999999.99509
5999999.99737
5999999.99813
6000000.00148
5999999.99592
5999999.99746
5999999.99276
5999999.99979
5999999.9951
5999999.99777
5999999.99701
5999999.99694
5999999.9965
5999999.99536
6000000.00363
6000000.00079
6000000.00087
5999999.99569
6000000.00146
6000000.00012
5999999.99976
6000000.00046
5999999.99936
5999999.99995
5999999.9967
6000000.00375
5999999.99427
5999999.99442
6000000.00164
5999999.99479
5999999.99502
6000000.00616
5999999.99524
5999999.99398
6000000.00072
6000000.00163
5999999.99983
6000000.00066
6000000.00013
6000000.00007
5999999.99994
6000000.00048
5999999.99952
6000000.00043
5999999.99988
6000000.00016
6000000.00007
5999999.99992
5999999.99993
6000000.00004
6000000.00075
5999999.99922
5999999.99949
6000000.00127
5999999.99989
5999999.99993
5999999.99981
5999999.99956
5999999.99903
6000000.00029
6000000
5999999.99981
5999999.99994
5999999.99955
6000000.0003
6000000.00153
5999999.99915
6000000.00096
6000000.00212
6000000.00237
5999999.99694
5999999.99795
6000000.00242
5999999.99967
6000000.00067
6000000.00053
5999999.99751
6000000.00235
6000000.00176
6000000.00029
5999999.99883
6000000.00009
5999999.99794
6000000.00255
6000000.00047
6000000.0012
5999999.99906
5999999.99832
6000000.00492
6000000.00515
5999999.99273
5999999.99711
6000000.00189
6000000.00151
5999999.99881
6000000.00126
6000000.00004
6000000.00289
5999999.99902
6000000.00153
5999999.99975
5999999.99982
6000000
6000000.00004
5999999.99996
5999999.99998
5999999.99998
6000000.00001
6000000.00004
6000000.00014
6000000.00001
6000000.00001
6000000.00001
5999999.99998
6000000.00016
5999999.99999
6000000.00001
5999999.99993
5999999.99996
6000000.00014
6000000.00006
5999999.99995
6000000.00014
6000000.00001
6000000.00001
5999999.9999
6000000.00012
5999999.99995
6000000.00002
5999999.99992
5999999.99953
5999999.9995
5999999.99993
6000000.00005
6000000.00199
5999999.9993
5999999.99974
5999999.99992
6000000.0001
6000000.00003
6000000.00009
5999999.99993
6000000.00001
6000000
5999999.99996
5999999.99941
6000000.00051
5999999.99887
6000000.00256
5999999.99985
5999999.99893
6000000.0015
5999999.99873
6000000.00291
6000000.00388
5999999.99912
5999999.99969
6000000.00634
6000000.00091
6000000.00065
6000000.00054
5999999.9998
6000000.00004
6000000.00007
6000000.00026
6000000.00005
6000000.00006
6000000.00009
5999999.99956
6000000.00062
6000000.00025
6000000.00023
6000000.00018
5999999.99989
6000000.00002
5999999.99992
6000000.00002
5999999.99998
6000000.00067
5999999.99835
5999999.99775
6000000.00304
5999999.99788
6000000.00287
5999999.99735
5999999.99918
6000000.00002
5999999.99748
5999999.99925
6000000.00295
5999999.99591
5999999.99429
6000000.00077
5999999.99425
5999999.99327
6000000.00152
5999999.99722
5999999.9993
5999999.99616
6000000.00195
6000000.00179
5999999.99749
6000000.00373
5999999.99814
5999999.99816
6000000.00189
6000000.00171
6000000.0002
5999999.99953
5999999.99985
6000000.00003
5999999.99992
5999999.99977
6000000.00104
5999999.99955
6000000.00145
5999999.99866
5999999.99856
6000000.00025
5999999.99893
5999999.99943
5999999.99816
5999999.99897
5999999.99903
5999999.99995
5999999.99898
6000000.00346
5999999.99942
5999999.99888
5999999.9997
5999999.99998
5999999.99996
5999999.99983
5999999.99983
6000000.00022
5999999.99998
5999999.99996
6000000.00014
6000000.00008
5999999.99998
6000000.00007
5999999.99998
6000000.00017
6000000
6000000.00063
5999999.9979
5999999.99902
6000000.0006
6000000.00001
5999999.99998
5999999.99997
6000000.00001
5999999.99989
5999999.99983
6000000.00002
5999999.99992
5999999.99923
6000000.00053
5999999.99944
6000000.00078
5999999.99963
5999999.99997
6000000.00143
5999999.99957
6000000
5999999.99994
6000000.00005
5999999.99991
6000000
5999999.99983
5999999.99991
5999999.99998
5999999.9999
5999999.99906
6000000.00024
5999999.99909
6000000.00267
5999999.99895
6000000.00055
6000000.00019
5999999.99986
5999999.99996
6000000.00075
5999999.9994
5999999.99561
6000000.00264
6000000.00018
6000000.00012
6000000.00029
6000000.00094
6000000.00067
5999999.9982
6000000.00301
6000000.00329
6000000.00029
5999999.99837
6000000.00255
6000000.00174
5999999.99831
6000000.00427
6000000.00037
6000000.00254
5999999.99691
5999999.99775
6000000.0008
5999999.99908
5999999.99996
5999999.99722
6000000.0033
6000000.00063
5999999.99938
6000000.00019
5999999.99844
6000000.00238
5999999.99865
6000000.00164
5999999.99589
6000000.00492
6000000.00408
5999999.99805
6000000.0014
5999999.99368
5999999.99317
6000000.00349
6000000.00272
6000000.005
5999999.99884
5999999.99629
6000000.00437
5999999.99663
5999999.99857
5999999.99891
5999999.99869
6000000.0005
5999999.99939
6000000.00013
5999999.99968
5999999.99969
6000000.00015
5999999.99817
6000000.0015
5999999.99971
5999999.99942
6000000.00135
5999999.99891
6000000.00087
5999999.9967
6000000.00005
5999999.99999
5999999.99964
5999999.99849
5999999.99845
6000000.00147
6000000.00098
5999999.99949
6000000.00578
6000000.00234
5999999.99578
6000000.0026
5999999.99871
6000000.00571
6000000.00401
5999999.99717
5999999.99562
5999999.99877
6000000.00651
6000000.00201
5999999.99755
5999999.99691
5999999.99536
6000000.00296
5999999.99684
5999999.99525
5999999.99856
5999999.99468
6000000.00412
5999999.99734
5999999.9972
5999999.99882
6000000.00156
5999999.99752
5999999.99817
6000000.00154
6000000.00108
5999999.99707
5999999.99748
5999999.99614
5999999.99631
5999999.99708
5999999.99807
6000000.00041
5999999.99423
5999999.99469
6000000.00091
6000000.00006
5999999.99576
5999999.99584
5999999.99518
5999999.99425
6000000.00449
5999999.99753
5999999.99306
5999999.99969
5999999.99557
6000000.00191
6000000.00514
5999999.99252
5999999.99438
5999999.99759
6000000.00559
6000000.00129
5999999.99822
6000000.0036
6000000.00458
5999999.9998
6000000.00608
5999999.99618
5999999.99356
6000000.00374
6000000.00134
5999999.99939
5999999.99464
5999999.99634
6000000.00276
5999999.99597
5999999.99841
6000000.00208
5999999.99896
6000000.00291
6000000.00718
6000000.0033
5999999.99921
5999999.99527
5999999.99718
6000000.00584
6000000.00225
5999999.99558
5999999.99713
6000000.00089
6000000.00629
6000000.00099
5999999.99894
5999999.99983
6000000.00211
5999999.99846
5999999.9991
6000000.00404
6000000.00194
5999999.99697
6000000.0027
5999999.9966
5999999.99965
5999999.99738
6000000.00078
6000000.00162
5999999.99402
6000000
6000000.00108
5999999.99415
5999999.99742
6000000.0033
5999999.99815
5999999.99813
6000000.00296
5999999.99842
5999999.99656
5999999.99559
5999999.99836
5999999.99655
5999999.9993
5999999.99786
6000000.0069
5999999.99754
6000000.00058
6000000.00535
5999999.99863
6000000.00202
6000000.00008
6000000.00875
5999999.99705
6000000.00064
6000000.00641
6000000.00703
5999999.99885
5999999.99772
6000000.01011
6000000.00792
6000000.00621
5999999.99807
5999999.99784
6000000.00804
6000000.00858
6000000.00177
6000000.00673
6000000.0024
5999999.9948
6000000.0068
6000000.00808
6000000.00013
5999999.99712
6000000.00763
6000000.00264
5999999.99385
6000000.00236
6000000.00217
6000000.00916
6000000.00782
5999999.99755
6000000.00214
6000000.00729
5999999.99617
5999999.99921
6000000.00654
6000000.00937
6000000.00045
6000000.00627
6000000.00564
6000000.00484
5999999.99789
6000000.00107
6000000.00842
6000000.00951
6000000.01022
6000000.00302
6000000.00289
6000000.00642
6000000.01043
5999999.99967
6000000.00278
6000000.0058
5999999.99654
6000000.00573
6000000.0053
6000000.00984
6000000.0042
6000000.00741
6000000.0058
5999999.99347
6000000.00687
6000000.00219
5999999.99835
6000000.0088
5999999.99884
5999999.99987
5999999.99868
6000000.00047
5999999.99825
5999999.99985
5999999.99895
5999999.99952
5999999.99932
5999999.99944
5999999.99736
5999999.9979
5999999.99959
5999999.99818
6000000.0002
5999999.99825
5999999.99886
5999999.99824
6000000.00017
5999999.998
5999999.99735
5999999.99858
5999999.99974
5999999.99867
5999999.99879
5999999.99955
5999999.9974
5999999.99844
5999999.99931
5999999.99589
5999999.99844
6000000.00026
5999999.99932
5999999.99672
5999999.9994
5999999.99753
5999999.99987
5999999.9989
5999999.99874
5999999.99697
5999999.99918
6000000.00007
5999999.99784
5999999.99942
5999999.99969
5999999.99882
5999999.99892
5999999.99921
5999999.9967
5999999.99698
5999999.99948
5999999.99991
6000000.00028
6000000.00048
5999999.99832
5999999.99907
5999999.99793
5999999.99826
5999999.99833
5999999.99869
5999999.99961
6000000.00041
6000000.00214
5999999.99834
5999999.99941
5999999.99941
5999999.99981
5999999.9997
6000000.00069
5999999.99972
5999999.99957
6000000.00034
5999999.99974
5999999.99974
5999999.99974
5999999.99972
6000000.00052
6000000.00004
5999999.9998
5999999.99959
6000000.00028
6000000.00039
5999999.99983
6000000.00029
5999999.99983
6000000.00041
5999999.99987
5999999.99975
6000000.00016
5999999.99991
6000000.00043
5999999.99985
5999999.99999
5999999.99946
6000000.00034
6000000.00037
6000000.00025
6000000.00055
5999999.9999
6000000.00049
6000000.00046
5999999.99973
6000000.00015
5999999.99983
6000000.00034
6000000.00008
5999999.99969
6000000.00047
6000000.00022
6000000.00045
6000000.00032
5999999.99956
5999999.9997
5999999.99974
6000000.00014
6000000.00006
6000000.00035
6000000.00037
5999999.99968
5999999.99998
6000000.00026
6000000.00002
6000000.00032
6000000.00016
6000000.00016
6000000.00044
5999999.99967
6000000.00052
6000000.00063
6000000.0009
6000000.00094
6000000.00105
6000000.00063
6000000.00095
6000000.00079
6000000.00123
6000000.00072
6000000.00078
6000000.00079
6000000.00083
6000000.00075
6000000.00081
6000000.00086
6000000.00094
6000000.00075
6000000.00087
6000000.00105
6000000.00086
6000000.00101
6000000.00113
6000000.00067
6000000.001
6000000.0009
6000000.00084
6000000.00069
6000000.00055
6000000.00092
6000000.00085
6000000.00081
6000000.0009
6000000.00085
6000000.00117
6000000.00068
6000000.00093
6000000.00065
6000000.00082
6000000.00057
6000000.00078
6000000.00094
6000000.00094
6000000.00096
6000000.00087
6000000.00086
6000000.0009
6000000.00075
6000000.00093
6000000.00111
6000000.00108
6000000.00074
6000000.00083
6000000.00076
6000000.00093
6000000.00094
6000000.00089
6000000.00095
6000000.00097
6000000.00098
6000000.00089
6000000.00086
6000000.00114
6000000.00129
6000000.00085
5999999.99904
5999999.99876
5999999.99889
5999999.99903
5999999.9988
5999999.99928
5999999.99885
5999999.99883
5999999.99872
5999999.99876
5999999.99893
5999999.99911
5999999.99908
5999999.9989
5999999.99868
5999999.99882
5999999.99876
5999999.99905
5999999.99891
5999999.99911
5999999.9989
5999999.99877
5999999.99915
5999999.99905
5999999.99883
5999999.99892
5999999.99938
5999999.99886
5999999.99897
5999999.99904
5999999.99901
5999999.99944
5999999.99909
5999999.99913
5999999.99887
5999999.99889
5999999.99915
5999999.99877
5999999.99863
5999999.99875
5999999.99904
5999999.99908
5999999.99884
5999999.99905
5999999.99898
5999999.99897
5999999.99939
5999999.9991
5999999.99881
5999999.99899
5999999.99889
5999999.99873
5999999.99884
5999999.99868
5999999.99896
5999999.99889
5999999.999
5999999.99904
5999999.99893
5999999.99895
5999999.99889
5999999.99904
5999999.9989
5999999.99884
5999999.99955
5999999.99933
5999999.99948