/*--------------------------------*- C++ -*----------------------------------*\
  =========                 |
  \\      /  F ield         | OpenFOAM: The Open Source CFD Toolbox
   \\    /   O peration     | Website:  https://openfoam.org
    \\  /    A nd           | Version:  6
     \\/     M anipulation  |
\*---------------------------------------------------------------------------*/
FoamFile
{
    version     2.0;
    format      ascii;
    class       volScalarField;
    location    "5.01e-05";
    object      p;
}
// * * * * * * * * * * * * * * * * * * * * * * * * * * * * * * * * * * * * * //

dimensions      [1 -1 -2 0 0 0 0];

internalField   nonuniform List<scalar> 
8192
(
6000000.00085
5999999.99938
6000000.00022
6000000.00133
6000000.00527
5999999.99809
6000000.00212
5999999.99914
6000000.00073
5999999.99986
6000000.00019
5999999.99982
6000000.00053
6000000.00141
6000000.00081
6000000.00071
6000000.00056
5999999.99772
5999999.99901
6000000.00059
5999999.99864
5999999.9974
6000000.00169
5999999.99983
5999999.99944
5999999.99984
5999999.99763
5999999.99894
5999999.99823
5999999.99876
6000000.00025
6000000.0008
5999999.99637
5999999.99397
6000000.00773
6000000.00745
5999999.99913
6000000.00422
5999999.99976
5999999.99657
6000000.00453
5999999.99722
6000000.00044
5999999.99987
6000000.00069
6000000.00048
6000000.00029
5999999.99952
5999999.99931
6000000.00171
5999999.99647
6000000.00103
6000000.00347
5999999.99535
5999999.99577
6000000.00119
5999999.99999
6000000.00363
6000000.00018
6000000.00641
5999999.99641
5999999.99709
5999999.99701
6000000.00295
6000000.001
6000000.00245
6000000.00021
6000000.00431
5999999.9952
6000000.00348
5999999.9985
5999999.9961
6000000.00236
6000000.00268
6000000.00679
5999999.99674
5999999.99467
6000000.00636
6000000.00244
5999999.99514
5999999.9945
5999999.99195
6000000.00317
6000000.0058
6000000.00012
5999999.99928
6000000.00636
6000000.00463
5999999.997
5999999.99713
5999999.99813
5999999.99823
5999999.99675
6000000.00498
5999999.99651
6000000.00263
6000000.00166
5999999.99945
6000000.00373
5999999.99822
5999999.99973
5999999.99988
5999999.99973
6000000.00042
5999999.99856
6000000.00026
6000000.00012
6000000
5999999.99998
5999999.99998
6000000.00016
6000000.00047
5999999.99939
6000000.00075
5999999.99955
6000000.00183
6000000.00013
5999999.9984
6000000.00071
5999999.99878
5999999.999
5999999.99863
6000000.00035
5999999.99847
6000000.00017
5999999.99953
6000000.00029
6000000.00031
6000000.0064
6000000.00054
5999999.99607
6000000.00078
5999999.99818
5999999.99962
5999999.99997
5999999.99949
6000000.001
6000000.00087
5999999.99854
6000000.00362
6000000.00072
6000000.00318
6000000.00428
5999999.99675
5999999.99714
5999999.99798
6000000.00213
6000000.00229
5999999.99988
5999999.99989
5999999.99875
6000000.00069
5999999.99456
6000000.00008
5999999.99669
5999999.99683
6000000.00182
6000000.00162
5999999.99807
5999999.99911
5999999.99976
5999999.99974
6000000.00008
6000000.00045
5999999.9996
6000000.00231
6000000.00018
6000000.00118
5999999.99734
6000000.00064
5999999.99698
6000000.00356
6000000.00192
6000000.00273
6000000.00192
6000000.00415
6000000.0023
6000000.00002
5999999.99402
6000000.00322
6000000.00195
5999999.9977
6000000.00061
5999999.99781
6000000.00316
6000000.00044
6000000.00208
5999999.99241
5999999.99249
6000000.00187
6000000.00624
6000000.00417
5999999.99927
5999999.999
6000000.00149
6000000.00064
5999999.99986
6000000.00001
5999999.99997
6000000.00001
6000000.00015
6000000.00015
5999999.99998
5999999.99716
5999999.9975
6000000.00327
5999999.99923
5999999.99997
6000000.00005
5999999.99998
6000000.0001
6000000.00029
6000000.00045
5999999.99954
5999999.99994
6000000.00019
5999999.99954
6000000.0007
5999999.99997
5999999.99466
6000000.00142
6000000.002
5999999.99714
6000000.00093
6000000.00684
5999999.99413
5999999.99672
6000000.00525
6000000.00849
5999999.99188
5999999.99415
6000000.00123
6000000.00416
5999999.99519
6000000.00346
6000000.00046
6000000.00479
5999999.99826
6000000.00711
6000000.00357
5999999.99053
6000000.00059
6000000.00706
5999999.99875
6000000.0055
5999999.99318
5999999.998
6000000.00117
6000000.00378
6000000.00411
6000000.00044
6000000.00243
6000000.00082
5999999.99899
5999999.99931
5999999.99931
6000000
5999999.9987
6000000.0007
5999999.99768
6000000.00184
5999999.99805
5999999.99948
5999999.99913
5999999.99959
5999999.99981
5999999.99997
6000000.00156
6000000.00158
5999999.9961
6000000.00046
6000000.00222
5999999.99983
6000000.00317
5999999.99549
5999999.99661
6000000.00507
6000000.00043
5999999.99629
5999999.99444
6000000.00003
5999999.99346
5999999.99859
5999999.99463
6000000.00185
6000000.00624
5999999.99572
6000000.00064
5999999.99913
6000000.00151
5999999.9992
5999999.99935
6000000.00162
5999999.99768
6000000.00251
6000000.00033
6000000.00008
6000000.00019
6000000.00001
6000000.00001
6000000.00006
6000000.00034
5999999.99888
6000000.00153
5999999.99748
5999999.99957
5999999.99778
6000000.0023
6000000.00642
5999999.99877
5999999.99331
6000000.00354
6000000.00776
5999999.99749
6000000.00353
5999999.99819
6000000.00776
5999999.99631
5999999.99609
5999999.99603
6000000.0015
6000000.00292
5999999.99438
6000000.00214
6000000.00136
5999999.99967
6000000.00125
5999999.99784
6000000.00059
6000000.00072
5999999.99724
6000000.00254
6000000.00218
6000000.00092
6000000.00022
5999999.99976
5999999.99684
5999999.99707
6000000.00094
6000000.00122
5999999.99975
5999999.99809
5999999.99719
6000000.00059
5999999.99653
6000000.00082
5999999.99642
5999999.99429
5999999.99664
6000000.0038
5999999.99695
5999999.99639
6000000.00723
5999999.99874
6000000.00319
5999999.99973
5999999.99589
6000000.0039
5999999.99472
6000000.00417
6000000
5999999.99919
6000000.0016
5999999.9997
6000000.00134
6000000.00009
6000000.0012
6000000.00173
5999999.99781
6000000.00336
6000000.00171
5999999.99673
6000000.002
6000000.00045
5999999.99998
6000000.0039
5999999.99736
6000000.00441
6000000.00271
5999999.99411
5999999.99156
5999999.99514
5999999.99858
6000000.00154
6000000.00274
6000000.00357
5999999.99329
5999999.99129
6000000.00163
5999999.99578
5999999.99886
6000000.00498
5999999.99806
5999999.99867
6000000.00267
5999999.99612
5999999.99795
6000000.0065
5999999.99606
5999999.99889
5999999.99448
6000000.00257
6000000.00525
5999999.99938
5999999.99799
5999999.99177
6000000.00494
5999999.99881
6000000.00514
5999999.99916
5999999.99623
6000000.00368
5999999.99483
5999999.99405
6000000.00047
6000000.00277
5999999.99823
5999999.99809
5999999.99779
6000000.00185
6000000.00189
5999999.99701
6000000.00225
5999999.99836
5999999.99944
6000000.00124
5999999.99887
5999999.9995
5999999.99988
6000000.00085
6000000.00143
5999999.99724
6000000.00194
6000000.00063
5999999.99957
5999999.99761
6000000.00202
6000000.00043
5999999.99898
6000000.00215
6000000.00163
5999999.9975
5999999.99948
6000000.00041
5999999.99911
5999999.99616
5999999.99672
5999999.99861
5999999.99493
6000000.00303
6000000.00211
6000000.00006
6000000.00061
5999999.99882
6000000.00363
5999999.99801
6000000.00315
6000000.00197
5999999.9956
6000000.00449
6000000.00132
6000000.0005
6000000.00076
5999999.99806
6000000.00216
6000000.00049
5999999.99888
6000000.00152
6000000.00011
5999999.99905
5999999.99685
6000000.00519
5999999.99628
5999999.99961
6000000.00208
5999999.9965
6000000.00425
5999999.99546
6000000.003
5999999.99894
5999999.99892
5999999.99708
6000000.00263
6000000.00627
5999999.9981
5999999.99801
6000000.00138
6000000.00289
5999999.99769
5999999.99696
6000000.00654
5999999.99779
5999999.99964
5999999.99948
6000000.00101
6000000.00339
5999999.99765
6000000.00488
5999999.99834
5999999.99868
6000000.00221
6000000.00029
5999999.99962
6000000.00363
6000000.00021
6000000.00327
5999999.99853
5999999.99928
5999999.99956
5999999.99759
5999999.99367
6000000.00297
6000000.00159
5999999.99835
5999999.99956
5999999.99852
6000000.00022
5999999.99789
6000000.00135
5999999.99846
6000000.00073
5999999.99929
6000000.00002
6000000.00039
5999999.99815
6000000.00096
6000000.00035
5999999.99986
5999999.99989
5999999.99973
6000000.00019
6000000.00043
5999999.9997
6000000.00005
5999999.99982
6000000.00002
5999999.99981
5999999.99992
5999999.99971
5999999.99927
5999999.99996
6000000
5999999.99981
5999999.99998
6000000.00012
5999999.99994
5999999.99855
6000000.00256
5999999.99828
5999999.99928
5999999.99893
5999999.99931
6000000.00028
5999999.99991
6000000
5999999.9996
6000000.00176
6000000.00057
6000000.0001
6000000.00031
5999999.99927
5999999.9975
6000000.00274
6000000.0031
5999999.9983
5999999.99315
5999999.99317
6000000.00119
6000000.00692
6000000.00292
6000000.00388
5999999.99663
6000000.00461
5999999.99319
6000000.00116
5999999.99596
6000000.00037
5999999.99995
6000000.00353
5999999.99885
6000000.0021
5999999.99764
6000000.0019
5999999.99958
6000000.00001
6000000.00027
6000000.00041
6000000
5999999.99941
6000000.00338
5999999.99947
5999999.99999
6000000.00002
5999999.99992
5999999.99989
5999999.99999
6000000.00072
5999999.99874
5999999.9987
5999999.99876
5999999.99937
5999999.99993
5999999.99853
5999999.99655
6000000.00194
6000000.00078
6000000.00091
6000000.00245
5999999.99728
5999999.99731
6000000.00758
6000000.00342
6000000.00147
6000000.00286
5999999.99706
5999999.99863
6000000.00115
5999999.99891
6000000.001
6000000.00024
6000000.00059
6000000.00068
6000000.00269
5999999.99948
5999999.99739
6000000.00073
5999999.9997
5999999.99961
6000000.00459
5999999.99893
5999999.99776
6000000.00311
6000000.00166
6000000.00048
6000000.00111
5999999.99619
5999999.99735
6000000.00483
6000000.00594
6000000.00287
5999999.9963
5999999.99751
6000000.00347
6000000
5999999.99777
5999999.99645
6000000.00466
6000000.00351
5999999.99968
6000000.00218
5999999.99755
6000000.00151
5999999.99948
6000000.00065
6000000.00086
6000000.0005
6000000.00125
5999999.99948
5999999.99909
6000000.00135
6000000.00119
5999999.994
5999999.99416
6000000.00355
6000000.00056
5999999.99915
5999999.99834
6000000.00331
5999999.99701
6000000.00084
6000000.0014
6000000.00311
5999999.99333
6000000.00284
6000000.00165
6000000.00499
5999999.99557
5999999.9978
6000000.00159
6000000.00039
5999999.99478
5999999.99752
6000000.00546
6000000.0061
5999999.99959
6000000.00176
6000000.00126
6000000.00424
5999999.9972
6000000.00156
6000000.00184
5999999.99505
6000000.00329
6000000.00359
6000000.00559
6000000.00872
5999999.99534
5999999.99798
6000000.00387
6000000.00669
5999999.99445
5999999.9949
6000000.00275
5999999.99809
6000000.00001
6000000.00069
5999999.99581
6000000.00171
5999999.99675
6000000.00052
5999999.99564
5999999.99419
6000000.00425
6000000.00322
5999999.99835
6000000.00318
6000000.00124
5999999.99994
5999999.99988
5999999.99827
5999999.99682
6000000.00387
6000000.00759
5999999.99647
5999999.9985
5999999.99229
6000000.00478
6000000.0061
5999999.99553
5999999.99728
5999999.99579
5999999.99711
5999999.9964
6000000.00125
5999999.99901
6000000.00217
5999999.99872
5999999.99986
6000000.00362
5999999.99387
5999999.99463
5999999.99609
6000000.00713
6000000.00035
5999999.99829
6000000.00105
6000000.00016
6000000.00282
5999999.99899
6000000.0016
6000000.00604
5999999.99626
5999999.99419
5999999.99212
6000000.00318
6000000.00288
5999999.9921
5999999.99623
5999999.99685
6000000.00137
5999999.9987
5999999.99267
6000000.00392
6000000.00492
5999999.99989
6000000.00091
5999999.99989
6000000.00075
6000000.001
6000000.00063
6000000.00008
5999999.99999
5999999.99991
5999999.99988
6000000.00015
6000000.00046
5999999.99807
6000000.00236
6000000.00709
5999999.99984
6000000.00109
6000000.00314
5999999.99924
6000000.00384
6000000.00131
5999999.99994
5999999.99987
5999999.99986
6000000.00151
5999999.99716
5999999.99702
6000000.0011
5999999.99576
6000000.0012
5999999.9985
5999999.99938
5999999.99904
5999999.9998
5999999.99972
6000000.00005
6000000.00051
5999999.99788
6000000.00367
5999999.99852
5999999.99889
5999999.99988
5999999.99793
6000000.00116
6000000.00129
6000000.00015
6000000.00051
5999999.99884
6000000.00405
5999999.99981
6000000
6000000.00055
5999999.99965
6000000.00046
5999999.9974
6000000.00641
6000000.00371
5999999.99469
5999999.99836
6000000.00227
5999999.99806
6000000.00381
5999999.99871
5999999.9998
6000000.00008
5999999.99937
6000000.00037
5999999.99901
6000000.0007
5999999.99676
6000000.00196
6000000.0011
6000000.00114
5999999.99956
6000000.00007
5999999.99675
6000000.00695
6000000.00374
5999999.99384
6000000.00153
6000000.00318
6000000.00478
5999999.99569
5999999.99537
6000000.00461
5999999.99849
5999999.9993
6000000.00042
5999999.99997
5999999.99992
5999999.99996
6000000.00002
5999999.99989
5999999.99993
5999999.99988
6000000.0003
5999999.99829
6000000.00297
5999999.99708
5999999.99968
6000000.00133
5999999.99256
6000000.00512
6000000.00495
6000000.00167
5999999.99934
6000000.00303
6000000.00564
5999999.99627
5999999.99494
6000000.0028
5999999.99904
6000000.0033
6000000.00539
6000000.00057
6000000.00596
6000000.0001
5999999.99975
6000000.00084
6000000.00065
5999999.99985
6000000.00007
6000000.00372
5999999.99768
6000000.0007
6000000.00174
6000000.00322
6000000.0031
5999999.99449
6000000.00225
6000000.0007
6000000.00116
5999999.99907
6000000.0049
6000000.00381
5999999.99721
6000000.0032
6000000.00033
5999999.9992
6000000.00062
5999999.99951
6000000.00243
5999999.9933
6000000.00257
6000000.00144
6000000.0003
5999999.99864
6000000.00016
6000000.0015
5999999.99967
5999999.99999
6000000.00002
6000000
6000000.00002
5999999.99989
6000000.00001
5999999.99979
5999999.99989
6000000.00037
5999999.99885
6000000.00198
5999999.9995
5999999.99979
5999999.99963
6000000.00036
5999999.99809
6000000.00099
6000000.00058
6000000.00073
5999999.99718
5999999.99786
6000000.00112
6000000.00213
5999999.99823
6000000.00128
5999999.99803
6000000.00309
6000000.00287
6000000.00054
6000000.00032
5999999.99965
5999999.999
6000000.00227
5999999.99524
6000000.00661
5999999.99684
5999999.99436
6000000.0036
6000000.00417
6000000.00528
5999999.99995
6000000.00027
5999999.99415
5999999.99546
5999999.99507
6000000.00201
5999999.99774
6000000.00514
5999999.9991
5999999.9972
6000000.00074
5999999.99705
6000000.00223
5999999.99807
6000000.0054
5999999.9927
5999999.99494
6000000.004
5999999.99454
5999999.99666
5999999.99805
6000000.00216
6000000.0019
6000000.00123
6000000.00003
6000000.00105
6000000.00086
6000000.00273
5999999.99643
6000000.00227
6000000.00148
5999999.99971
5999999.99818
6000000.00003
6000000.00013
5999999.99844
5999999.99882
6000000.0016
5999999.99988
6000000.00172
6000000.00235
5999999.99701
5999999.99902
6000000.00499
5999999.99914
5999999.99969
5999999.99981
6000000
6000000.00001
6000000.00014
6000000
5999999.99978
6000000.00058
6000000.00005
5999999.99658
6000000.00116
5999999.99939
5999999.99987
5999999.99996
6000000.00046
5999999.99786
6000000.00386
6000000.00203
5999999.99514
6000000.00666
5999999.9939
5999999.99306
6000000.00265
6000000.00535
5999999.99153
5999999.99735
5999999.99689
5999999.99921
6000000.00127
5999999.99791
6000000.00139
5999999.99584
5999999.99683
6000000.00078
5999999.9971
6000000.00381
5999999.99787
6000000.00165
6000000.00303
5999999.99538
5999999.99472
5999999.99378
5999999.99928
6000000.00491
6000000.00234
5999999.99605
5999999.99305
6000000.00409
6000000.00285
5999999.9933
5999999.9992
6000000.00581
6000000.00458
5999999.99793
5999999.99754
6000000.00497
5999999.99965
6000000.00002
6000000.00001
5999999.99975
6000000.00106
6000000.00155
5999999.99843
5999999.99796
5999999.99838
6000000.00064
6000000.00192
5999999.9994
6000000.00075
5999999.99819
5999999.99763
6000000.0016
6000000.00067
6000000.00034
6000000.00002
6000000.00005
5999999.99991
5999999.9999
6000000.0005
5999999.99889
5999999.99878
6000000.00018
6000000.00245
5999999.99791
5999999.99984
6000000.00017
5999999.99409
6000000.00037
6000000.00076
6000000.00499
6000000.00185
5999999.99921
6000000.0016
6000000.00049
5999999.99785
6000000.00315
5999999.99618
6000000.00333
6000000.00056
6000000.00519
5999999.999
5999999.99974
6000000.00593
6000000.00236
6000000.00404
6000000.0022
5999999.99621
5999999.99862
6000000.00337
5999999.99939
5999999.99765
5999999.99687
6000000.00291
5999999.99783
5999999.99877
5999999.99664
6000000.00028
6000000.00235
5999999.9982
5999999.99828
5999999.99882
5999999.99977
5999999.99987
6000000.00172
6000000.00071
6000000.00084
5999999.9989
6000000.00195
6000000.0016
5999999.99847
5999999.99976
6000000.00027
6000000.00002
6000000.00013
5999999.99989
6000000.00124
6000000.00118
5999999.99787
6000000.00317
6000000.00216
5999999.9961
6000000.00545
5999999.99464
5999999.99832
6000000.00261
6000000.00655
6000000.00302
6000000.00284
6000000.00184
5999999.99246
5999999.99708
5999999.99869
5999999.99897
6000000.00427
6000000.00477
5999999.99337
5999999.99702
5999999.99477
6000000.0059
6000000.00266
6000000.00313
5999999.99858
6000000.00104
6000000.00075
6000000.0021
5999999.99954
5999999.99907
5999999.9998
6000000.00003
5999999.99987
6000000.00092
5999999.99918
6000000.00131
5999999.99987
6000000.00016
5999999.9986
5999999.99564
6000000.00352
6000000.00126
5999999.99599
5999999.99447
6000000.00574
5999999.99793
5999999.99558
6000000.00169
6000000.00635
5999999.99522
6000000.00428
5999999.99873
5999999.99747
6000000.00623
5999999.99911
6000000.00014
5999999.99996
6000000
6000000.00007
6000000.00001
6000000.00007
6000000.00002
6000000.00007
6000000.0002
6000000.00025
6000000.00003
6000000.00019
5999999.99921
6000000.00125
6000000.00153
5999999.99447
6000000.0033
6000000.00509
5999999.99866
6000000.00181
6000000.00271
6000000.00238
5999999.99896
6000000.00023
5999999.99389
6000000.00135
5999999.99954
6000000.00127
6000000.00327
5999999.99898
5999999.99878
5999999.99941
5999999.99874
6000000.00032
5999999.99836
6000000.00123
6000000.00178
5999999.99819
5999999.99944
5999999.99865
6000000.00156
5999999.99961
5999999.99999
5999999.99963
5999999.99924
6000000.00094
5999999.99902
5999999.99805
6000000.00382
5999999.99605
6000000.00148
5999999.99879
5999999.99928
5999999.99991
5999999.99919
6000000.00201
5999999.99546
6000000.00196
5999999.99938
5999999.99912
6000000.00004
5999999.99941
5999999.99987
5999999.99947
6000000.00126
5999999.99833
5999999.9995
5999999.99995
5999999.99993
5999999.99992
5999999.99998
6000000.00009
5999999.99993
5999999.99967
6000000
5999999.99985
5999999.99987
6000000.00003
5999999.99924
6000000.00216
5999999.99944
6000000.00017
6000000.00015
6000000.00152
5999999.99794
6000000.00152
5999999.99595
6000000.00273
6000000.00177
6000000.00203
6000000.00237
5999999.99693
5999999.99901
5999999.9979
6000000.00272
5999999.99886
5999999.99808
6000000.00191
5999999.99807
5999999.99904
5999999.99956
5999999.99997
6000000.00457
6000000.00173
6000000.00333
5999999.99913
6000000.00034
6000000.00262
5999999.99502
6000000.00068
5999999.99645
6000000.00565
6000000.00199
5999999.99398
5999999.9955
5999999.99497
6000000.00605
6000000.00188
6000000.00591
5999999.99702
5999999.9981
6000000.00076
5999999.9949
5999999.9938
5999999.99691
5999999.99818
6000000.00251
5999999.99459
5999999.99677
5999999.99352
6000000.00071
5999999.99506
5999999.99815
5999999.99652
5999999.99642
5999999.99474
5999999.99474
6000000.00432
6000000.00153
6000000.00147
5999999.99349
6000000.00259
5999999.99949
6000000.00029
6000000.00141
5999999.99843
6000000.0004
5999999.99569
6000000.00335
5999999.99492
5999999.99497
6000000.00272
5999999.9947
5999999.99519
6000000.00596
5999999.99535
5999999.99377
6000000.00113
6000000.002
5999999.99964
6000000.00154
6000000.00063
6000000.00045
5999999.99997
6000000.00071
5999999.99952
6000000.00069
5999999.9988
6000000.00041
6000000.00027
5999999.99992
5999999.99992
6000000.00021
6000000.00188
5999999.99999
5999999.99958
6000000.00133
6000000.00018
5999999.99932
5999999.99957
5999999.99946
5999999.99909
6000000.00028
6000000.00008
6000000.00041
5999999.99946
5999999.99894
6000000.00071
6000000.00233
5999999.99802
6000000.0009
6000000.00329
6000000.0028
5999999.99622
5999999.9973
6000000.00361
5999999.99925
6000000.00163
6000000.00053
5999999.99641
6000000.00314
6000000.00273
5999999.99996
5999999.99874
6000000.00005
5999999.99836
6000000.00388
6000000.00026
6000000.00118
5999999.99868
5999999.99732
6000000.00682
6000000.00611
5999999.99324
5999999.99749
6000000.00181
6000000.00141
5999999.99883
6000000.00125
5999999.99996
6000000.00347
5999999.99917
6000000.0027
5999999.99969
5999999.99947
5999999.99989
6000000.00004
5999999.99997
5999999.99998
5999999.99998
6000000.00001
6000000.00004
6000000.00014
6000000
6000000
6000000.00001
5999999.99998
6000000.0002
6000000
6000000.00001
5999999.99993
5999999.99996
6000000.00021
6000000.0003
5999999.99995
6000000.00014
5999999.99999
6000000.00001
5999999.99958
6000000.0003
5999999.9999
6000000.00037
5999999.99931
5999999.9992
5999999.99927
6000000.00071
5999999.99958
6000000.00311
5999999.99936
5999999.99968
5999999.99957
6000000.00018
6000000.00006
6000000.00013
5999999.9999
6000000.00001
6000000
6000000.00018
5999999.99893
6000000.00062
5999999.99884
6000000.00385
5999999.99935
5999999.99877
6000000.0015
5999999.99888
6000000.00409
6000000.00362
5999999.99846
5999999.99982
6000000.00623
6000000.00087
6000000.00069
6000000.00105
5999999.99968
6000000.00002
6000000.00007
6000000.00026
6000000.00008
6000000.00007
6000000.00039
5999999.9989
6000000.00138
6000000.00089
6000000.00057
6000000.0004
5999999.99909
6000000.00008
5999999.99992
6000000.00002
6000000.00015
6000000.00106
5999999.99905
5999999.99698
6000000.00228
5999999.99788
6000000.00225
5999999.99608
5999999.99904
5999999.99963
5999999.99669
5999999.9998
6000000.0045
5999999.9946
5999999.99355
6000000.00235
5999999.99298
5999999.9939
6000000.00095
5999999.99724
5999999.99838
5999999.99556
6000000.00245
6000000.00247
5999999.99654
6000000.00408
5999999.99792
5999999.99748
6000000.00257
6000000.00291
5999999.99948
5999999.99929
5999999.9996
6000000.0002
5999999.99975
5999999.99917
6000000.00198
5999999.99945
6000000.00216
5999999.99859
5999999.99804
6000000.00024
5999999.99886
5999999.99939
5999999.99819
5999999.99847
5999999.99857
5999999.99981
5999999.99851
6000000.00356
5999999.99945
5999999.99752
5999999.99981
5999999.99999
5999999.99996
5999999.99983
5999999.99983
6000000.00022
5999999.99998
5999999.99996
6000000.00014
6000000.00012
5999999.99998
6000000.00007
5999999.99998
6000000.00019
6000000.0009
6000000.00048
5999999.99754
5999999.99766
6000000.00144
6000000.00024
5999999.99998
5999999.99997
6000000.00003
5999999.99989
5999999.99964
6000000.00013
5999999.99991
5999999.99899
6000000.00071
5999999.99978
6000000.00159
5999999.99883
6000000.00028
6000000.00197
5999999.99947
6000000.00037
5999999.99921
5999999.99996
5999999.99991
6000000
5999999.99983
5999999.9999
6000000.00006
5999999.99923
5999999.9983
6000000.00012
5999999.99911
6000000.00235
5999999.99779
6000000.00134
6000000.00071
5999999.99983
6000000.00046
6000000.00148
5999999.99901
5999999.99622
6000000.00403
6000000.00018
6000000.00013
6000000.00081
6000000.00217
6000000.00031
5999999.997
6000000.00458
6000000.00293
5999999.99961
5999999.99789
6000000.00212
6000000.00184
5999999.99893
6000000.00541
6000000.0003
6000000.00245
5999999.99693
5999999.99746
6000000.00129
5999999.99894
5999999.99967
5999999.99672
6000000.00388
6000000.00117
5999999.99854
6000000.00029
5999999.99837
6000000.00372
5999999.99829
6000000.00183
5999999.99412
6000000.00675
6000000.00516
5999999.9983
6000000.00124
5999999.99238
5999999.99217
6000000.00322
6000000.00237
6000000.00418
5999999.99761
5999999.99499
6000000.0042
5999999.99591
5999999.99887
5999999.99888
5999999.99785
6000000.00131
5999999.99885
6000000.00037
5999999.99987
5999999.99943
6000000.00046
5999999.99754
6000000.00239
5999999.9995
5999999.99866
6000000.00294
5999999.99779
6000000.00144
5999999.99594
6000000.00044
5999999.99999
5999999.99964
5999999.99847
5999999.99845
6000000.00162
6000000.00197
5999999.99911
6000000.00669
6000000.00255
5999999.99384
6000000.00319
5999999.99845
6000000.00686
6000000.00568
5999999.99743
5999999.99581
5999999.99878
6000000.00643
6000000.00196
5999999.9969
5999999.99543
5999999.99532
6000000.00288
5999999.99695
5999999.99455
5999999.99796
5999999.99487
6000000.00401
5999999.99734
5999999.99615
5999999.99861
6000000.00178
5999999.99718
5999999.99717
6000000.00122
6000000.00135
5999999.99602
5999999.99766
5999999.99537
5999999.99539
5999999.99721
5999999.9988
6000000.00099
5999999.99253
5999999.99385
6000000.00201
6000000.00055
5999999.9951
5999999.9954
5999999.99499
5999999.99354
6000000.00435
5999999.99669
5999999.99242
6000000.00033
5999999.99584
6000000.00256
6000000.00485
5999999.99261
5999999.9946
5999999.99768
6000000.00558
6000000.0007
5999999.99746
6000000.00302
6000000.0062
5999999.99977
6000000.00599
5999999.99632
5999999.99363
6000000.00362
6000000.00072
5999999.99953
5999999.99461
5999999.99639
6000000.00262
5999999.99617
5999999.99847
6000000.00205
5999999.99889
6000000.00302
6000000.0071
6000000.00315
5999999.99838
5999999.99526
5999999.99729
6000000.0057
6000000.00224
5999999.99565
5999999.99729
6000000.00084
6000000.00622
6000000.00094
5999999.99894
5999999.99971
6000000.0015
5999999.99861
5999999.99907
6000000.00337
6000000.00175
5999999.99694
6000000.00259
5999999.99675
5999999.9996
5999999.99733
6000000.00043
6000000.00239
5999999.99424
5999999.99999
6000000.00098
5999999.99417
5999999.99753
6000000.00291
5999999.9981
5999999.99814
6000000.00255
5999999.99842
5999999.99657
5999999.99567
5999999.99784
5999999.99592
5999999.99932
5999999.99793
6000000.00674
5999999.99771
6000000.00025
6000000.00529
5999999.99863
6000000.00137
5999999.99996
6000000.00835
5999999.9972
6000000.00091
6000000.0063
6000000.00679
5999999.99902
5999999.99816
6000000.00992
6000000.00776
6000000.00606
5999999.99802
5999999.99813
6000000.00795
6000000.00825
6000000.00181
6000000.00673
6000000.00229
5999999.99516
6000000.00683
6000000.00774
6000000.00013
5999999.99732
6000000.00741
6000000.00254
5999999.9941
6000000.00245
6000000.00218
6000000.00907
6000000.00759
5999999.99771
6000000.00237
6000000.00707
5999999.99614
5999999.99958
6000000.00643
6000000.00909
6000000.00062
6000000.00635
6000000.00545
6000000.00489
5999999.99803
6000000.00131
6000000.00838
6000000.00954
6000000.01006
6000000.00297
6000000.00301
6000000.00642
6000000.01021
5999999.99972
6000000.00294
6000000.00571
5999999.99666
6000000.00549
6000000.00517
6000000.0099
6000000.0042
6000000.00735
6000000.00564
5999999.99365
6000000.00686
6000000.00203
5999999.99869
6000000.00875
5999999.99876
5999999.99978
5999999.99859
6000000.00035
5999999.99829
5999999.99961
5999999.99902
5999999.9995
5999999.99926
5999999.99948
5999999.99719
5999999.99774
5999999.99953
5999999.99814
6000000.00026
5999999.99828
5999999.99865
5999999.9983
6000000.00012
5999999.99788
5999999.99748
5999999.99865
5999999.99963
5999999.99847
5999999.99871
5999999.9996
5999999.99753
5999999.9984
5999999.99928
5999999.99583
5999999.99848
6000000.00017
5999999.99922
5999999.99675
5999999.99936
5999999.99741
5999999.99997
5999999.99884
5999999.99866
5999999.99677
5999999.99892
6000000.00007
5999999.99779
5999999.99945
5999999.99959
5999999.99873
5999999.9988
5999999.99911
5999999.99661
5999999.99693
5999999.99944
5999999.99993
6000000.00019
6000000.00024
5999999.99833
5999999.99892
5999999.99786
5999999.99831
5999999.99823
5999999.99873
5999999.99956
6000000.00036
6000000.00212
5999999.99833
5999999.99939
5999999.99943
5999999.99991
5999999.99966
6000000.00068
5999999.99987
5999999.99954
6000000.00036
5999999.99981
5999999.99976
5999999.9998
5999999.9998
6000000.00053
6000000.00013
5999999.99978
5999999.99964
6000000.00024
6000000.00033
5999999.99982
6000000.00048
5999999.9999
6000000.00035
5999999.99993
5999999.99992
6000000.00029
6000000.00003
6000000.00036
5999999.99976
6000000.00004
5999999.99958
6000000.00031
6000000.00046
6000000.0002
6000000.00048
5999999.99989
6000000.00063
6000000.00053
5999999.99969
6000000.00042
5999999.99996
6000000.00034
6000000.0001
5999999.99961
6000000.00076
6000000.00024
6000000.00048
6000000.00029
5999999.99949
5999999.99988
5999999.99978
6000000.00012
6000000.00001
6000000.0003
6000000.00041
5999999.99976
6000000.00008
6000000.00024
6000000.00014
6000000.00028
6000000.00015
6000000.00015
6000000.00043
5999999.99978
6000000.00061
6000000.00076
6000000.00103
6000000.00101
6000000.0011
6000000.00063
6000000.00101
6000000.00088
6000000.00123
6000000.00086
6000000.00082
6000000.00089
6000000.00087
6000000.00082
6000000.00084
6000000.00093
6000000.00099
6000000.00083
6000000.00098
6000000.0011
6000000.0009
6000000.00114
6000000.00122
6000000.00076
6000000.001
6000000.00097
6000000.00092
6000000.00077
6000000.00061
6000000.00103
6000000.00089
6000000.00087
6000000.00087
6000000.00089
6000000.00118
6000000.00074
6000000.00097
6000000.00075
6000000.00088
6000000.00069
6000000.00087
6000000.00101
6000000.00111
6000000.00102
6000000.00093
6000000.00096
6000000.00094
6000000.00077
6000000.00103
6000000.00122
6000000.00129
6000000.00074
6000000.00089
6000000.00086
6000000.00097
6000000.00097
6000000.00098
6000000.00098
6000000.00107
6000000.00103
6000000.00105
6000000.00091
6000000.00124
6000000.00134
6000000.00088
5999999.99898
5999999.99867
5999999.99878
5999999.999
5999999.9987
5999999.99912
5999999.9988
5999999.99876
5999999.99869
5999999.99869
5999999.99887
5999999.99901
5999999.99902
5999999.99881
5999999.99864
5999999.99871
5999999.9988
5999999.99899
5999999.99887
5999999.999
5999999.9988
5999999.99877
5999999.99914
5999999.99897
5999999.99868
5999999.99888
5999999.99934
5999999.99875
5999999.99896
5999999.99906
5999999.99902
5999999.99937
5999999.99904
5999999.99908
5999999.99887
5999999.99885
5999999.99909
5999999.99866
5999999.99857
5999999.99871
5999999.99905
5999999.99906
5999999.99891
5999999.99904
5999999.99894
5999999.99898
5999999.99921
5999999.999
5999999.9988
5999999.99893
5999999.99886
5999999.99866
5999999.99879
5999999.99861
5999999.99893
5999999.99889
5999999.99896
5999999.99901
5999999.99883
5999999.99882
5999999.99877
5999999.99905
5999999.99881
5999999.99885
5999999.9994
5999999.99935
5999999.99947
5999999.99981
5999999.99977