/*--------------------------------*- C++ -*----------------------------------*\
  =========                 |
  \\      /  F ield         | OpenFOAM: The Open Source CFD Toolbox
   \\    /   O peration     | Website:  https://openfoam.org
    \\  /    A nd           | Version:  6
     \\/     M anipulation  |
\*---------------------------------------------------------------------------*/
FoamFile
{
    version     2.0;
    format      ascii;
    class       volVectorField;
    location    "5.01e-05";
    object      U;
}
// * * * * * * * * * * * * * * * * * * * * * * * * * * * * * * * * * * * * * //

dimensions      [0 1 -1 0 0 0 0];

internalField   nonuniform List<vector> 
8192
(
(-88.3219999999 0 -2.95106714623e-10)
(-88.3219999996 0 -1.01738768184e-10)
(-88.3220000002 0 -7.42322725586e-11)
(-88.3220000004 0 -3.27802901924e-10)
(-88.3219999994 0 -6.81222795547e-11)
(-88.3219999996 0 -1.09759715291e-11)
(-88.3220000003 0 -3.99387942995e-12)
(-88.3219999999 0 1.52970611959e-10)
(-88.322 0 -2.97338658297e-10)
(-88.322 0 -6.06297315615e-10)
(-88.3219999999 0 -7.75673873928e-10)
(-88.322 0 3.90995209414e-10)
(-88.3220000002 0 6.88607961742e-10)
(-88.3220000001 0 -8.18778100362e-10)
(-88.3219999998 0 -6.47054576929e-10)
(-88.3219999998 0 3.96098474642e-10)
(-88.3219999997 0 3.68283388533e-10)
(-88.3219999998 0 7.54502660246e-10)
(-88.3220000003 0 -4.37612755266e-10)
(-88.3219999999 0 -6.29600679014e-10)
(-88.3219999996 0 2.63343969585e-10)
(-88.3220000004 0 4.05884333355e-10)
(-88.3220000004 0 -6.84661474006e-10)
(-88.3219999998 0 -6.09087158427e-10)
(-88.322 0 2.01171691423e-10)
(-88.3219999998 0 2.13730028091e-10)
(-88.3219999998 0 2.71445322282e-10)
(-88.3219999999 0 2.24379236006e-10)
(-88.3220000002 0 3.52952618133e-10)
(-88.3220000002 0 -1.8712966403e-10)
(-88.322 0 2.43090373729e-10)
(-88.3219999995 0 -8.6957363353e-11)
(-88.3219999988 0 1.44129955123e-10)
(-88.3220000021 0 5.91059679775e-10)
(-88.322000003 0 -9.46830655824e-10)
(-88.3219999986 0 -6.73212337171e-10)
(-88.3219999994 0 -6.43093044432e-12)
(-88.3219999996 0 -6.00051514827e-10)
(-88.3219999984 0 1.66820089082e-10)
(-88.3220000007 0 2.03194136246e-10)
(-88.3220000001 0 -8.52689951135e-11)
(-88.3219999997 0 8.4978667059e-11)
(-88.3220000002 0 -1.74709109447e-11)
(-88.322 0 -1.60933097937e-11)
(-88.322 0 -6.5206836007e-11)
(-88.322 0 -4.47915497484e-11)
(-88.322 0 -2.4045450967e-11)
(-88.3219999999 0 -2.06445603016e-11)
(-88.3220000001 0 3.73324322222e-11)
(-88.3219999998 0 -1.15094582002e-10)
(-88.3219999999 0 1.62190165085e-10)
(-88.3220000007 0 -8.84781478316e-11)
(-88.3219999993 0 -2.36764018681e-10)
(-88.3219999992 0 3.96528126905e-10)
(-88.3220000013 0 2.19481414886e-10)
(-88.3220000007 0 -1.9809233109e-10)
(-88.322 0 -2.34894246006e-11)
(-88.3219999998 0 -1.93303892115e-10)
(-88.3220000002 0 -5.22028229777e-11)
(-88.3219999991 0 -3.42560248639e-10)
(-88.3219999982 0 3.71539327356e-10)
(-88.3219999998 0 4.19588900036e-10)
(-88.322000001 0 3.74547688964e-10)
(-88.3220000014 0 -6.84869529163e-11)
(-88.3220000001 0 -3.86707393413e-10)
(-88.3219999998 0 -1.00301753379e-10)
(-88.3220000002 0 1.64107189163e-10)
(-88.3219999996 0 2.5525865397e-11)
(-88.3219999999 0 3.13862563468e-10)
(-88.3220000002 0 -1.2625980803e-10)
(-88.3219999994 0 6.8275640574e-11)
(-88.3220000006 0 2.15235670991e-12)
(-88.3220000014 0 -1.12936383216e-11)
(-88.3220000009 0 -7.18760475486e-11)
(-88.3219999981 0 7.96979660292e-11)
(-88.321999997 0 -2.7888987785e-10)
(-88.3220000022 0 -2.80535737448e-11)
(-88.3220000026 0 -2.04668796374e-10)
(-88.3219999978 0 -3.4817633472e-10)
(-88.3219999981 0 3.51297905981e-10)
(-88.3219999995 0 2.69509274642e-10)
(-88.3220000018 0 1.52107581363e-10)
(-88.3220000025 0 -3.73375924948e-10)
(-88.3219999988 0 -2.10722927629e-10)
(-88.3219999983 0 -7.45492901883e-11)
(-88.3220000015 0 -3.99039834767e-11)
(-88.3220000017 0 2.29416099596e-10)
(-88.3219999985 0 -7.18733609484e-11)
(-88.3219999984 0 4.82623957561e-10)
(-88.322 0 -1.78892828364e-10)
(-88.3220000001 0 3.13795127651e-10)
(-88.3219999999 0 3.16198533775e-10)
(-88.3220000007 0 -1.03538287837e-10)
(-88.322 0 -1.7283907293e-11)
(-88.3219999998 0 9.97779123963e-11)
(-88.3220000006 0 3.6353671927e-11)
(-88.3219999997 0 -2.70406651323e-10)
(-88.3220000003 0 -4.97515386265e-10)
(-88.322 0 6.28840440149e-10)
(-88.3219999994 0 7.02177316912e-10)
(-88.3220000002 0 1.40292874003e-11)
(-88.322 0 3.191254874e-10)
(-88.322 0 -1.62920620436e-10)
(-88.322 0 -2.63551732005e-10)
(-88.322 0 2.14260246458e-10)
(-88.3220000001 0 -1.15110735573e-10)
(-88.322 0 9.85830223771e-11)
(-88.322 0 -2.38902830885e-10)
(-88.322 0 -4.1067884588e-10)
(-88.322 0 -3.6211633952e-10)
(-88.322 0 -3.51169980253e-10)
(-88.322 0 -4.51342275472e-10)
(-88.322 0 -3.99518527472e-10)
(-88.322 0 -6.44851989585e-11)
(-88.322 0 3.21458223097e-10)
(-88.3220000001 0 -1.07511693606e-10)
(-88.3219999997 0 6.82754475851e-11)
(-88.322 0 -1.24355506443e-10)
(-88.3220000001 0 -3.23212696838e-10)
(-88.3219999999 0 4.23974793825e-10)
(-88.322 0 -2.06488728354e-10)
(-88.3220000002 0 -1.38868849766e-10)
(-88.322 0 -3.78924954805e-10)
(-88.3219999999 0 1.01341449974e-09)
(-88.322 0 3.77042541785e-10)
(-88.3220000002 0 -8.44843350867e-10)
(-88.3220000002 0 -1.17457561544e-09)
(-88.3220000001 0 -4.68224213411e-10)
(-88.3219999992 0 9.63999407193e-11)
(-88.3219999986 0 1.37254281082e-10)
(-88.322 0 -4.09158405601e-11)
(-88.3220000001 0 2.31480699094e-10)
(-88.3219999998 0 -1.97792441384e-10)
(-88.3220000001 0 1.76072109594e-10)
(-88.322 0 -5.72706034754e-11)
(-88.3220000001 0 -1.40847505599e-10)
(-88.3220000002 0 2.62058896753e-10)
(-88.3219999998 0 5.61245415539e-10)
(-88.3220000003 0 7.37564487524e-10)
(-88.3220000002 0 -2.53791396937e-10)
(-88.322 0 -5.73195206811e-10)
(-88.3220000006 0 5.59360623698e-10)
(-88.3219999987 0 5.80004548298e-10)
(-88.3219999986 0 -4.22958372287e-10)
(-88.3220000002 0 -3.72768104278e-10)
(-88.3220000011 0 -6.65942754303e-10)
(-88.322000001 0 4.74163615217e-10)
(-88.3219999994 0 5.79613528614e-10)
(-88.3219999992 0 -2.18638919301e-10)
(-88.3219999998 0 -2.06218042255e-10)
(-88.3220000004 0 6.42919131095e-10)
(-88.3219999993 0 6.05342950578e-10)
(-88.3220000002 0 -1.05596859119e-10)
(-88.3220000001 0 -1.98972565075e-10)
(-88.3219999989 0 -1.07607237105e-10)
(-88.3220000008 0 1.31912099144e-10)
(-88.3220000009 0 -1.28619104769e-10)
(-88.3219999998 0 8.322823658e-11)
(-88.3219999999 0 8.12389569509e-11)
(-88.3220000004 0 6.04628391353e-12)
(-88.322 0 -5.17426397744e-10)
(-88.322 0 4.93639812667e-10)
(-88.3220000002 0 6.99342759035e-10)
(-88.322 0 -4.86982214894e-10)
(-88.3220000003 0 -7.77603598103e-10)
(-88.322 0 9.0329675927e-10)
(-88.3219999997 0 4.6462091003e-10)
(-88.3219999999 0 -3.68093394919e-10)
(-88.3219999999 0 -4.92776170831e-10)
(-88.322 0 2.3421029297e-10)
(-88.3220000005 0 -3.11529872373e-10)
(-88.3220000011 0 -7.66322308534e-11)
(-88.3220000003 0 -3.97237973851e-10)
(-88.3219999998 0 6.50006133574e-11)
(-88.3220000001 0 -6.80581159003e-10)
(-88.3219999999 0 -6.13292405527e-10)
(-88.3219999993 0 5.89373352281e-10)
(-88.3219999984 0 2.91600278255e-11)
(-88.3220000001 0 -4.78454357505e-10)
(-88.3220000012 0 1.97632484117e-10)
(-88.3219999994 0 -4.8461600076e-10)
(-88.3219999999 0 4.57229576755e-10)
(-88.322 0 1.0928805996e-10)
(-88.3220000005 0 -3.74797459815e-10)
(-88.3220000012 0 -4.31334819905e-10)
(-88.3220000003 0 -4.57720811468e-10)
(-88.321999998 0 -1.73600171447e-10)
(-88.3219999977 0 -2.32973580076e-10)
(-88.322000002 0 -1.76153401652e-10)
(-88.322000003 0 9.26258909342e-11)
(-88.3220000002 0 6.91624523539e-11)
(-88.3219999999 0 9.52674675144e-11)
(-88.322 0 6.9905317272e-10)
(-88.3220000001 0 2.10812945315e-10)
(-88.322 0 -9.72423782608e-11)
(-88.3219999999 0 1.85954181763e-10)
(-88.322 0 -2.30418477285e-10)
(-88.322 0 5.21492406737e-11)
(-88.322 0 1.93312653677e-11)
(-88.322 0 4.13975851336e-11)
(-88.322 0 4.67123662314e-11)
(-88.322 0 1.0815258924e-10)
(-88.3219999997 0 -4.44495449077e-11)
(-88.3219999997 0 1.81931095339e-10)
(-88.3220000006 0 -2.34281037356e-11)
(-88.3220000002 0 4.80267223687e-10)
(-88.3219999997 0 3.87607041051e-10)
(-88.322 0 -3.46910788488e-10)
(-88.322 0 -2.57249024348e-10)
(-88.322 0 -3.38543254772e-10)
(-88.322 0 5.76243225133e-10)
(-88.322 0 4.98283880366e-10)
(-88.322 0 -5.58479036445e-10)
(-88.3219999998 0 -5.00309083209e-10)
(-88.322 0 3.44930312388e-10)
(-88.322 0 5.72657993517e-10)
(-88.322 0 -2.42439776147e-10)
(-88.322 0 6.24324103691e-10)
(-88.3219999994 0 -1.9766530436e-10)
(-88.3219999999 0 7.23683389501e-11)
(-88.3220000007 0 -1.02330655191e-10)
(-88.3219999996 0 -3.20680452358e-10)
(-88.3219999998 0 1.28040857775e-10)
(-88.3220000017 0 -1.03060407555e-10)
(-88.3219999988 0 6.82658336013e-12)
(-88.321999998 0 -1.06349649797e-10)
(-88.3220000019 0 5.08549235723e-11)
(-88.3220000024 0 1.03601146683e-10)
(-88.3219999975 0 -8.71976139428e-11)
(-88.3219999976 0 4.02558293749e-10)
(-88.3220000025 0 -4.27341384698e-11)
(-88.3220000018 0 4.7069700277e-11)
(-88.3219999988 0 -1.03054557859e-10)
(-88.3219999998 0 1.8914494333e-12)
(-88.3220000006 0 -1.18694464211e-10)
(-88.3220000002 0 2.41061620118e-10)
(-88.3219999997 0 4.4259059167e-10)
(-88.3220000006 0 3.60853990059e-10)
(-88.3220000013 0 3.84312534834e-10)
(-88.3219999975 0 3.05088410999e-10)
(-88.3219999989 0 5.72562722141e-10)
(-88.322000002 0 1.95215720455e-10)
(-88.3219999998 0 -3.9454948641e-10)
(-88.3220000002 0 1.09037221602e-10)
(-88.3219999991 0 -2.47166158529e-10)
(-88.3219999989 0 2.29434246966e-10)
(-88.3220000017 0 6.36407786881e-10)
(-88.322000001 0 -5.89399302459e-10)
(-88.3220000001 0 -2.21408388099e-10)
(-88.3219999996 0 4.57646183122e-10)
(-88.3219999996 0 3.25526399182e-11)
(-88.3219999998 0 -5.38630032718e-10)
(-88.3219999994 0 -1.19101017573e-09)
(-88.3219999997 0 8.83681299148e-10)
(-88.3220000001 0 1.09375242732e-09)
(-88.322 0 8.55286787047e-10)
(-88.3220000005 0 -3.30882663535e-10)
(-88.3220000001 0 -1.6405476084e-10)
(-88.322 0 3.09862603902e-10)
(-88.3220000004 0 -4.61180878009e-11)
(-88.322 0 -7.51622528764e-11)
(-88.3219999996 0 -4.41006472316e-12)
(-88.322 0 -1.08907653068e-11)
(-88.322 0 5.20479790213e-11)
(-88.322 0 1.37666627017e-11)
(-88.322 0 -1.2404123902e-11)
(-88.3220000001 0 8.86013805724e-11)
(-88.3220000002 0 -3.21554163677e-10)
(-88.3219999995 0 -3.34439725403e-10)
(-88.3219999998 0 6.4594434597e-11)
(-88.3220000004 0 -3.10745366502e-11)
(-88.322 0 4.14726467858e-11)
(-88.3220000002 0 1.96442843658e-10)
(-88.3219999994 0 1.83921381032e-10)
(-88.3219999993 0 -3.46512474e-11)
(-88.3220000017 0 -8.73525180372e-12)
(-88.3220000012 0 4.17790070288e-11)
(-88.321999998 0 4.83185423936e-11)
(-88.3219999983 0 1.06417128523e-10)
(-88.3220000005 0 -1.27866193177e-10)
(-88.3220000001 0 1.59433712543e-10)
(-88.322 0 1.01215058369e-11)
(-88.3219999999 0 2.9603451062e-10)
(-88.3220000006 0 2.91420460544e-10)
(-88.3220000015 0 4.14174387271e-10)
(-88.3219999993 0 -4.22769560788e-11)
(-88.3219999994 0 1.47957471016e-10)
(-88.3220000005 0 4.40646916406e-10)
(-88.3220000001 0 -4.1016309179e-11)
(-88.322 0 -5.87007453741e-10)
(-88.3219999998 0 -8.13892744391e-10)
(-88.3220000002 0 2.68703493797e-10)
(-88.3219999997 0 9.8002775025e-10)
(-88.3219999999 0 -1.17670834347e-09)
(-88.3220000004 0 -2.96011979008e-10)
(-88.3219999999 0 1.24509387525e-10)
(-88.322 0 4.24986500825e-10)
(-88.322 0 -1.93984997649e-10)
(-88.322 0 2.55800470485e-10)
(-88.322 0 8.92443190094e-11)
(-88.322 0 3.58193388055e-10)
(-88.3219999999 0 -4.82486875824e-11)
(-88.3220000002 0 6.72827832285e-10)
(-88.3219999996 0 5.20081032349e-10)
(-88.3219999996 0 -5.05390647119e-10)
(-88.3220000004 0 -1.60959879255e-10)
(-88.3220000002 0 3.49823953338e-10)
(-88.3220000009 0 2.95436379941e-11)
(-88.3219999992 0 3.87344398098e-10)
(-88.3219999982 0 -4.95607312315e-10)
(-88.3220000016 0 -1.00162921663e-10)
(-88.3220000021 0 -2.62049594239e-10)
(-88.3219999991 0 2.37613363911e-10)
(-88.3219999998 0 1.09148542103e-10)
(-88.3219999998 0 -2.96733193852e-10)
(-88.3220000001 0 8.60415650997e-10)
(-88.3219999992 0 7.60757907795e-10)
(-88.3219999983 0 4.40351725051e-10)
(-88.3220000002 0 1.74046225693e-10)
(-88.3220000005 0 -4.66124928991e-11)
(-88.3220000003 0 -1.43765627481e-10)
(-88.3219999988 0 -2.69282505408e-10)
(-88.3219999999 0 4.95252792839e-10)
(-88.3220000007 0 6.87738581146e-10)
(-88.3219999999 0 2.04896677922e-11)
(-88.3219999999 0 4.48107111885e-10)
(-88.3219999999 0 3.17258029087e-10)
(-88.322 0 -4.88050639539e-10)
(-88.3220000001 0 2.93619348079e-11)
(-88.3219999998 0 1.02059582454e-10)
(-88.3220000003 0 -6.96949062386e-11)
(-88.3220000005 0 2.4495998042e-10)
(-88.3219999998 0 2.13615956817e-10)
(-88.3219999997 0 -6.32036914601e-10)
(-88.3219999998 0 5.34356068039e-10)
(-88.3219999996 0 4.46603714281e-10)
(-88.3219999997 0 5.95946023389e-10)
(-88.3220000004 0 1.19078136858e-10)
(-88.3220000004 0 -8.12035587127e-10)
(-88.3219999999 0 -2.74060840932e-10)
(-88.3219999997 0 9.7717457248e-10)
(-88.3219999998 0 1.17004215803e-09)
(-88.3220000004 0 -7.11587253873e-10)
(-88.3219999999 0 -6.76301673588e-10)
(-88.3219999998 0 -5.11345625948e-10)
(-88.3219999998 0 -1.46457595953e-10)
(-88.3219999989 0 1.2911001636e-10)
(-88.3219999997 0 -5.45882083186e-10)
(-88.3220000015 0 6.02877616395e-10)
(-88.3220000001 0 8.69892007069e-10)
(-88.3219999989 0 -1.76328594312e-10)
(-88.3220000022 0 -3.77989910193e-10)
(-88.3220000008 0 1.10019713226e-10)
(-88.3219999994 0 2.09665420833e-10)
(-88.3220000002 0 1.28711486488e-10)
(-88.3219999988 0 -1.53478979019e-10)
(-88.3220000004 0 -9.19520867984e-12)
(-88.322 0 -5.6656740676e-11)
(-88.3219999999 0 5.61192040715e-12)
(-88.3220000004 0 8.15733473418e-11)
(-88.3219999995 0 5.81526532112e-11)
(-88.3220000001 0 -3.49100171204e-11)
(-88.322 0 2.91980941462e-11)
(-88.322 0 1.59842027824e-11)
(-88.322 0 1.22649653941e-11)
(-88.322 0 5.13857654112e-12)
(-88.3220000002 0 -1.05809726381e-10)
(-88.3219999998 0 3.3861077631e-10)
(-88.3220000002 0 -2.61238867949e-10)
(-88.3220000003 0 -8.70299891678e-11)
(-88.3219999994 0 -3.12335385705e-11)
(-88.3220000002 0 1.68873239457e-10)
(-88.3220000002 0 3.25207420898e-10)
(-88.3219999998 0 -4.39028028951e-10)
(-88.3220000013 0 -5.31658269051e-10)
(-88.3220000001 0 3.07575753162e-10)
(-88.3219999995 0 4.23902603952e-10)
(-88.3220000007 0 6.06904717852e-11)
(-88.3219999981 0 4.46125908147e-10)
(-88.3219999977 0 -1.01342616657e-10)
(-88.3220000002 0 5.60565639474e-10)
(-88.3220000009 0 -2.42461964218e-10)
(-88.3220000011 0 -8.42083492086e-11)
(-88.322000001 0 -2.81910693485e-10)
(-88.3220000005 0 5.5028032551e-10)
(-88.3219999988 0 2.15542408461e-11)
(-88.3219999982 0 -3.71415778644e-10)
(-88.3220000014 0 6.64994812285e-11)
(-88.3220000005 0 4.06278099291e-11)
(-88.3219999989 0 5.84261790038e-11)
(-88.322000002 0 -1.13651893363e-10)
(-88.3220000006 0 5.96968655572e-11)
(-88.3219999989 0 -2.04180495937e-10)
(-88.3220000002 0 -1.73450490765e-10)
(-88.3219999998 0 4.04469676463e-10)
(-88.3219999996 0 -3.86141923927e-10)
(-88.3220000014 0 -3.05877171374e-10)
(-88.3219999992 0 -5.97969625062e-11)
(-88.3219999982 0 -1.2429742122e-10)
(-88.3219999998 0 2.91041735976e-11)
(-88.3220000009 0 -3.18580781227e-10)
(-88.3220000022 0 -1.62284983865e-10)
(-88.322 0 5.55611915479e-11)
(-88.3219999981 0 -6.45464548975e-12)
(-88.3219999984 0 -4.14430440281e-12)
(-88.3220000013 0 -4.70446946245e-11)
(-88.322000002 0 4.13428055648e-12)
(-88.3220000001 0 -7.12229074274e-11)
(-88.321999999 0 -7.75610716806e-11)
(-88.3219999988 0 5.18213783115e-11)
(-88.3220000007 0 -3.90403210246e-10)
(-88.3219999996 0 -3.89019848035e-10)
(-88.3219999987 0 -6.56566802958e-10)
(-88.3220000009 0 3.8629034383e-10)
(-88.322000002 0 -5.13260081891e-10)
(-88.322 0 -3.94576973347e-10)
(-88.3219999989 0 8.90085243233e-10)
(-88.3219999999 0 2.24110734416e-10)
(-88.3220000006 0 -1.1844299598e-10)
(-88.3220000005 0 -5.3524899694e-10)
(-88.3219999995 0 -1.52863784869e-10)
(-88.3219999999 0 6.69967953536e-10)
(-88.3220000001 0 -2.39281180485e-10)
(-88.3219999999 0 -6.66607631652e-11)
(-88.3220000001 0 7.29347152018e-11)
(-88.322 0 1.0810900453e-10)
(-88.3219999999 0 -2.5219121378e-10)
(-88.322 0 8.23841677267e-11)
(-88.322 0 5.19638409655e-11)
(-88.3220000001 0 1.66614875883e-11)
(-88.3219999995 0 -7.75777731669e-12)
(-88.322 0 -5.90104456322e-11)
(-88.3220000005 0 3.41022627272e-11)
(-88.3219999999 0 -5.45520199366e-11)
(-88.3219999997 0 1.52825975992e-10)
(-88.3220000002 0 -6.13329908407e-11)
(-88.3220000004 0 6.12197954958e-11)
(-88.3219999997 0 -6.31901141355e-11)
(-88.3220000001 0 5.27880210526e-11)
(-88.3220000002 0 3.15584335715e-10)
(-88.3219999997 0 -1.47850720896e-11)
(-88.3219999998 0 1.13067810879e-10)
(-88.3220000002 0 5.00658940183e-10)
(-88.3219999999 0 -5.6074522364e-10)
(-88.3219999996 0 -5.67944115043e-10)
(-88.3219999997 0 1.47262854852e-11)
(-88.3220000003 0 3.02103460137e-10)
(-88.3220000006 0 -1.02636616721e-10)
(-88.322 0 1.11953330878e-10)
(-88.3220000006 0 2.60319441797e-10)
(-88.3219999998 0 -4.58096255131e-10)
(-88.3219999998 0 -7.20657197549e-10)
(-88.3219999999 0 1.80068672614e-10)
(-88.3220000002 0 -4.48698376735e-10)
(-88.3219999999 0 -3.65404845093e-10)
(-88.3220000001 0 4.86396531854e-10)
(-88.3220000005 0 -5.65468428904e-11)
(-88.3219999985 0 -1.24366212854e-10)
(-88.3220000008 0 1.06274961798e-10)
(-88.322000002 0 -2.22719906895e-10)
(-88.3219999992 0 -9.83724133949e-11)
(-88.3219999993 0 4.28028676503e-10)
(-88.3219999995 0 -5.32780696981e-10)
(-88.322 0 -3.71666060901e-10)
(-88.322 0 -5.80223692827e-10)
(-88.3219999998 0 3.70048873366e-11)
(-88.3220000002 0 5.16172433195e-10)
(-88.322 0 1.90050608654e-11)
(-88.3219999999 0 -4.04821477064e-10)
(-88.3219999998 0 -7.96621335831e-10)
(-88.3220000005 0 2.49129328207e-10)
(-88.322 0 1.84030254875e-10)
(-88.3219999995 0 2.91951607158e-10)
(-88.3220000004 0 -2.7342895894e-10)
(-88.3219999998 0 -3.2857734951e-10)
(-88.3220000002 0 9.51257403896e-11)
(-88.3219999999 0 -5.61565046094e-10)
(-88.322 0 -5.4462556687e-10)
(-88.3220000003 0 -8.73603276394e-11)
(-88.3219999994 0 4.34370363582e-10)
(-88.3219999996 0 -9.56266305669e-11)
(-88.3220000014 0 -1.1565440736e-10)
(-88.3220000018 0 -1.27322358038e-10)
(-88.3219999989 0 -5.91664928695e-11)
(-88.3219999979 0 2.64663333548e-10)
(-88.3220000002 0 -7.16532957022e-11)
(-88.3220000014 0 1.23987305271e-10)
(-88.3219999999 0 -4.20621575167e-11)
(-88.3219999992 0 -3.14028987509e-11)
(-88.3220000007 0 5.60708150587e-11)
(-88.322 0 -2.13792009974e-11)
(-88.3219999994 0 -1.49474843893e-11)
(-88.3220000002 0 -6.17733788737e-11)
(-88.3220000001 0 -2.16339155998e-11)
(-88.3220000003 0 5.63623801802e-11)
(-88.3219999997 0 -2.23187243361e-10)
(-88.3220000002 0 7.98425506317e-11)
(-88.322 0 1.52619839158e-10)
(-88.3219999994 0 -2.00183931129e-10)
(-88.3220000003 0 -2.64080913633e-10)
(-88.3220000001 0 1.65317872746e-10)
(-88.3219999998 0 6.76951322316e-10)
(-88.3220000006 0 6.45553525679e-10)
(-88.3220000003 0 -2.64210285413e-10)
(-88.3219999999 0 -4.23513359563e-10)
(-88.3219999998 0 -3.04142412141e-10)
(-88.3219999995 0 -4.99437903515e-10)
(-88.3219999998 0 1.90702787879e-10)
(-88.3219999991 0 -4.8134258972e-10)
(-88.3219999992 0 3.5920633551e-10)
(-88.3220000013 0 -2.2733457781e-10)
(-88.3220000005 0 1.73695230915e-10)
(-88.3220000003 0 -3.48921134301e-10)
(-88.322 0 5.19442462461e-11)
(-88.322 0 -6.23774454426e-11)
(-88.322 0 1.14643256178e-11)
(-88.322 0 -8.57420689269e-11)
(-88.322 0 1.00883046324e-10)
(-88.322 0 5.45729002759e-11)
(-88.322 0 -1.0742000038e-10)
(-88.3220000001 0 2.02826305151e-10)
(-88.322 0 1.68427980031e-10)
(-88.322 0 -5.01074871608e-10)
(-88.322 0 5.93299105707e-10)
(-88.322 0 5.44526815861e-10)
(-88.3220000001 0 5.17459486538e-11)
(-88.3219999999 0 1.2438352671e-10)
(-88.322 0 -6.00928609802e-11)
(-88.322 0 1.06509491517e-10)
(-88.322 0 -7.72400784418e-12)
(-88.322 0 -5.54125760218e-12)
(-88.322 0 2.69736890825e-11)
(-88.322 0 -3.32567818843e-11)
(-88.322 0 1.47301041426e-11)
(-88.322 0 -3.0112560833e-11)
(-88.322 0 2.3064392599e-10)
(-88.322 0 -9.76275340338e-11)
(-88.322 0 -4.86662166464e-11)
(-88.322 0 1.22828136161e-10)
(-88.322 0 -2.17898058925e-11)
(-88.322 0 6.29290850058e-11)
(-88.322 0 -2.59997973002e-10)
(-88.322 0 6.13138013886e-11)
(-88.322 0 -1.3125557019e-10)
(-88.322 0 3.44280067242e-12)
(-88.322 0 1.78615147242e-10)
(-88.3220000004 0 -2.32331430246e-10)
(-88.3219999998 0 1.95043106656e-10)
(-88.3219999996 0 -2.39742551232e-10)
(-88.3220000001 0 -7.70072020094e-10)
(-88.322 0 2.1273753896e-10)
(-88.3220000001 0 3.54244471639e-10)
(-88.322 0 -6.00380221315e-11)
(-88.322 0 -1.0384402583e-10)
(-88.322 0 2.57537548507e-10)
(-88.3220000001 0 -1.20496106835e-10)
(-88.322 0 -4.3995692821e-11)
(-88.3219999999 0 -4.09210875797e-11)
(-88.322 0 -8.03496462802e-11)
(-88.3219999999 0 1.84741129056e-10)
(-88.3219999998 0 -4.48250084252e-12)
(-88.3220000004 0 2.48460040159e-10)
(-88.3220000005 0 -6.87378038837e-11)
(-88.3219999994 0 -9.31563929044e-11)
(-88.3219999985 0 -2.1319788633e-10)
(-88.3219999988 0 8.02647680731e-11)
(-88.322000002 0 1.4690347584e-10)
(-88.3220000024 0 -2.36196127876e-10)
(-88.3219999996 0 -1.17299917491e-10)
(-88.3219999999 0 -1.03377305029e-11)
(-88.3219999992 0 -1.45392087406e-10)
(-88.3219999998 0 8.29095338957e-11)
(-88.3219999992 0 6.70082997565e-11)
(-88.3219999992 0 -1.08318965969e-09)
(-88.3220000006 0 -1.00262464925e-09)
(-88.322 0 -2.4843499404e-10)
(-88.3219999996 0 1.96498610842e-10)
(-88.3220000001 0 1.28310264276e-10)
(-88.3219999998 0 -2.03624883964e-10)
(-88.3219999999 0 -7.02238883843e-11)
(-88.3219999997 0 1.02834201764e-10)
(-88.3219999999 0 7.17690406452e-11)
(-88.3220000003 0 -1.69639637215e-10)
(-88.3219999999 0 -2.01667951373e-10)
(-88.322 0 -2.85401514146e-11)
(-88.322 0 -1.04973047278e-10)
(-88.322 0 3.14779150492e-11)
(-88.3219999999 0 -4.25739301574e-11)
(-88.3220000003 0 -2.69231738049e-11)
(-88.3220000001 0 -2.09175722413e-11)
(-88.3219999998 0 -3.80692023821e-11)
(-88.322 0 -4.98692552926e-11)
(-88.322 0 -5.20866945035e-11)
(-88.322 0 -2.75758676352e-12)
(-88.322 0 6.04272281298e-11)
(-88.322 0 -1.74526838868e-10)
(-88.3219999998 0 -7.75821039834e-11)
(-88.3219999998 0 5.88683217297e-10)
(-88.322 0 4.03996921821e-10)
(-88.3220000001 0 -5.01241049683e-10)
(-88.3220000001 0 -3.61723913968e-10)
(-88.322 0 -9.7238522436e-11)
(-88.3219999998 0 8.45038732832e-11)
(-88.3220000003 0 -2.06900265825e-10)
(-88.3220000004 0 1.60705904899e-10)
(-88.322 0 -1.60301151301e-10)
(-88.3220000002 0 -4.17154355054e-10)
(-88.3219999995 0 -3.46851745287e-10)
(-88.3219999989 0 3.4424387035e-10)
(-88.3220000018 0 -4.65019230624e-10)
(-88.3220000017 0 -4.96051646028e-10)
(-88.321999999 0 -4.34272522183e-10)
(-88.3219999998 0 4.81969500861e-10)
(-88.3219999993 0 3.41482205886e-10)
(-88.321999999 0 -3.94803787653e-10)
(-88.3220000003 0 -2.41011491759e-10)
(-88.322 0 5.77834888836e-10)
(-88.322 0 1.43274029077e-10)
(-88.3220000001 0 -4.1097561756e-10)
(-88.322 0 -6.262212805e-10)
(-88.322 0 2.41313969736e-10)
(-88.3220000002 0 -2.45775309555e-10)
(-88.3219999998 0 -1.17479864864e-10)
(-88.3219999995 0 -5.32933174355e-10)
(-88.322 0 4.21381298298e-10)
(-88.3220000002 0 -1.60667419855e-10)
(-88.322 0 7.75373837348e-11)
(-88.3220000007 0 3.78016145297e-10)
(-88.3219999998 0 -4.66595977644e-10)
(-88.3219999991 0 -1.07862760595e-09)
(-88.3220000012 0 -1.29007903638e-09)
(-88.3220000008 0 -4.90686675506e-10)
(-88.3219999994 0 1.12080681963e-09)
(-88.3219999998 0 6.37914181599e-10)
(-88.3219999992 0 -8.00761872011e-11)
(-88.3219999994 0 -8.06376144887e-10)
(-88.3220000015 0 8.44456828177e-10)
(-88.3220000013 0 -5.30799619895e-11)
(-88.3219999995 0 -2.01807197107e-10)
(-88.3219999993 0 -5.3917221935e-11)
(-88.322 0 1.11765299395e-10)
(-88.3220000008 0 4.37151924248e-11)
(-88.3220000004 0 3.35933186199e-10)
(-88.3219999994 0 -2.51395158501e-10)
(-88.3219999997 0 2.34570604747e-10)
(-88.3220000006 0 -2.87090324349e-10)
(-88.3220000005 0 2.96037963342e-10)
(-88.3219999997 0 3.27786868606e-10)
(-88.322 0 -2.68051855148e-10)
(-88.3219999998 0 -4.47250900259e-10)
(-88.322 0 -1.22882886842e-10)
(-88.3220000001 0 -5.00921538911e-10)
(-88.322 0 -4.63094360351e-10)
(-88.3220000001 0 -1.09208930487e-10)
(-88.322 0 7.05908921026e-11)
(-88.322 0 5.74366496299e-11)
(-88.3219999999 0 1.31385514727e-10)
(-88.3219999998 0 -4.07026707167e-10)
(-88.3220000004 0 -8.04332129341e-10)
(-88.3220000002 0 3.63264777285e-10)
(-88.3219999984 0 3.48451557522e-10)
(-88.321999999 0 8.254386388e-10)
(-88.3220000023 0 -5.34486921816e-10)
(-88.3220000015 0 -5.39136099157e-10)
(-88.3219999992 0 3.43124588864e-10)
(-88.3219999992 0 3.24827154584e-10)
(-88.3220000002 0 3.21649356391e-10)
(-88.3219999999 0 1.01175447103e-10)
(-88.322 0 3.86422803339e-10)
(-88.3220000011 0 1.03073847616e-10)
(-88.3220000003 0 6.40056835892e-11)
(-88.3219999985 0 9.90075000745e-11)
(-88.3220000002 0 -1.58215844336e-10)
(-88.3220000016 0 -4.11496061997e-10)
(-88.3220000004 0 5.92647963498e-10)
(-88.3219999979 0 9.07365115741e-10)
(-88.321999998 0 5.93648334127e-10)
(-88.3220000017 0 8.03424336067e-10)
(-88.3220000012 0 -6.10380151048e-10)
(-88.3219999982 0 -6.91696551477e-11)
(-88.3219999992 0 5.86044074497e-11)
(-88.322000002 0 -8.63167784202e-11)
(-88.3220000015 0 6.82536746607e-11)
(-88.3219999987 0 -1.28180406212e-10)
(-88.3219999993 0 6.33516359199e-11)
(-88.3220000006 0 -1.32172452107e-10)
(-88.3220000006 0 -3.34224258858e-10)
(-88.3219999988 0 2.70334334423e-10)
(-88.321999999 0 3.84217879139e-10)
(-88.3220000011 0 5.25224484517e-10)
(-88.3219999994 0 -3.6579413747e-10)
(-88.3220000005 0 -3.68310205232e-10)
(-88.3220000013 0 8.54788604348e-10)
(-88.3220000004 0 1.48544607637e-10)
(-88.3220000009 0 1.26769154146e-10)
(-88.3219999977 0 3.70624233527e-10)
(-88.3219999974 0 5.89162540137e-10)
(-88.3220000023 0 7.40167979334e-10)
(-88.3220000019 0 -2.77378535151e-10)
(-88.3219999979 0 -4.98698596649e-10)
(-88.3219999977 0 -2.01794022677e-10)
(-88.3220000012 0 4.76572279746e-10)
(-88.3220000006 0 4.74800848956e-10)
(-88.3219999992 0 3.21060544246e-10)
(-88.322 0 -2.43504405274e-10)
(-88.3219999997 0 -2.41592268969e-10)
(-88.3220000004 0 1.68187995625e-10)
(-88.322 0 -2.65578683132e-11)
(-88.3219999998 0 -9.36756380995e-11)
(-88.3219999998 0 -1.50790325688e-10)
(-88.3219999991 0 1.78416143467e-10)
(-88.322000001 0 1.43831528971e-10)
(-88.3220000016 0 5.21496336144e-11)
(-88.3219999997 0 -4.7540551284e-11)
(-88.322 0 -4.27448814748e-10)
(-88.3220000005 0 -1.77915478458e-11)
(-88.3219999995 0 -1.10084233047e-10)
(-88.321999999 0 -1.37778164973e-10)
(-88.3219999994 0 9.82291017218e-11)
(-88.3219999999 0 -1.49003678232e-10)
(-88.3220000009 0 -1.26838877226e-11)
(-88.3220000019 0 -7.87254131918e-12)
(-88.3219999986 0 -7.31079391101e-11)
(-88.3219999977 0 2.0799567964e-10)
(-88.3219999989 0 -8.33152487675e-12)
(-88.3220000016 0 -3.98083034277e-10)
(-88.3220000028 0 -2.53692437132e-10)
(-88.3219999985 0 3.47526728812e-10)
(-88.3219999983 0 5.1676828734e-10)
(-88.322 0 9.20465741748e-11)
(-88.3220000001 0 -4.61715228462e-11)
(-88.3220000001 0 2.10640969576e-10)
(-88.3220000004 0 -1.10867184751e-10)
(-88.3220000006 0 1.74060222888e-10)
(-88.3220000001 0 4.25799773232e-10)
(-88.322 0 3.42009675077e-10)
(-88.3219999998 0 -3.29814012252e-10)
(-88.3220000004 0 5.73524180341e-10)
(-88.3219999993 0 2.56333183404e-10)
(-88.3219999988 0 6.95370315763e-10)
(-88.3220000001 0 -5.3288477866e-10)
(-88.3220000017 0 -3.470127599e-10)
(-88.3220000007 0 5.45812244842e-10)
(-88.3219999991 0 1.84594834949e-10)
(-88.322 0 -5.97447851582e-10)
(-88.3220000001 0 -1.38437822586e-10)
(-88.3220000002 0 3.90614565683e-10)
(-88.322 0 6.56394972879e-10)
(-88.3219999999 0 -4.415033532e-10)
(-88.322000001 0 2.48500485572e-10)
(-88.3219999991 0 8.8306098388e-11)
(-88.3219999981 0 5.51433652933e-10)
(-88.3219999996 0 -4.53638198758e-10)
(-88.3220000018 0 3.07349360307e-11)
(-88.3220000018 0 1.86783667679e-10)
(-88.3219999982 0 -6.7207411647e-10)
(-88.3219999988 0 1.20985748802e-10)
(-88.3220000005 0 8.6482527272e-10)
(-88.3220000007 0 8.21032914209e-10)
(-88.322 0 5.324653819e-10)
(-88.3219999989 0 -4.52821389791e-10)
(-88.3220000014 0 -6.45410568838e-10)
(-88.3220000015 0 5.4510712476e-10)
(-88.3219999994 0 5.60867437144e-10)
(-88.3219999995 0 -4.61259200899e-10)
(-88.322 0 -5.57143237938e-10)
(-88.3219999999 0 1.48731424321e-10)
(-88.322 0 -1.80761884041e-10)
(-88.322 0 -4.7807730388e-11)
(-88.322 0 1.53701972785e-10)
(-88.322 0 -2.7644396836e-10)
(-88.322 0 1.78797421114e-10)
(-88.322 0 -1.58764297655e-10)
(-88.322 0 1.48324774521e-10)
(-88.322 0 -2.65959682542e-10)
(-88.3219999999 0 -1.73077445866e-10)
(-88.3220000003 0 -2.48695472249e-10)
(-88.3220000007 0 1.59562638125e-11)
(-88.3219999999 0 4.13694124317e-10)
(-88.3219999994 0 1.92221484953e-10)
(-88.3220000002 0 -1.59638830517e-10)
(-88.3219999997 0 -3.28782534667e-10)
(-88.322 0 1.83539850457e-10)
(-88.3220000002 0 2.28321078924e-10)
(-88.3219999996 0 -3.04020321902e-10)
(-88.3219999999 0 4.67360869789e-10)
(-88.322 0 8.03118570027e-10)
(-88.3220000001 0 -3.38178106137e-10)
(-88.3219999996 0 -3.56721263113e-10)
(-88.3219999996 0 -8.58216766662e-10)
(-88.3220000006 0 4.34855206141e-10)
(-88.3219999999 0 4.88989556059e-10)
(-88.3219999998 0 -3.71430177531e-10)
(-88.3220000002 0 -3.33627294206e-10)
(-88.3219999999 0 -3.86031971473e-10)
(-88.322 0 -2.54298285012e-10)
(-88.322 0 -2.51575931558e-10)
(-88.322 0 -1.28988842042e-10)
(-88.322 0 1.39079345646e-10)
(-88.322 0 1.46240716479e-10)
(-88.3219999997 0 -1.64519525124e-10)
(-88.3220000004 0 4.23403460742e-10)
(-88.3220000003 0 -3.25970497385e-10)
(-88.3219999995 0 -8.26959696906e-10)
(-88.322 0 -6.40290373284e-10)
(-88.3219999997 0 -1.81281899208e-10)
(-88.3220000002 0 -1.32446456559e-11)
(-88.3220000005 0 -5.09072178288e-10)
(-88.3219999998 0 2.41889364336e-10)
(-88.322 0 4.07749936491e-10)
(-88.322 0 -3.90725243893e-10)
(-88.3220000004 0 9.2849870912e-11)
(-88.3220000002 0 -5.58852115877e-10)
(-88.3219999996 0 -4.86698894941e-10)
(-88.322 0 1.81984622125e-10)
(-88.3219999998 0 -8.97472511322e-10)
(-88.322 0 -5.58373013867e-10)
(-88.3219999999 0 -5.54149346823e-10)