/*--------------------------------*- C++ -*----------------------------------*\
  =========                 |
  \\      /  F ield         | OpenFOAM: The Open Source CFD Toolbox
   \\    /   O peration     | Website:  https://openfoam.org
    \\  /    A nd           | Version:  6
     \\/     M anipulation  |
\*---------------------------------------------------------------------------*/
FoamFile
{
    version     2.0;
    format      ascii;
    class       volScalarField;
    location    "4.49e-05";
    object      p;
}
// * * * * * * * * * * * * * * * * * * * * * * * * * * * * * * * * * * * * * //

dimensions      [1 -1 -2 0 0 0 0];

internalField   nonuniform List<scalar> 
8192
(
6000000.00044
5999999.99938
6000000.00055
6000000.00055
6000000.00381
5999999.99744
6000000.0012
6000000.00009
6000000.00006
5999999.99975
6000000.00024
5999999.99979
6000000.0006
6000000.00143
6000000.00093
6000000.00043
6000000.00066
5999999.99881
5999999.99907
6000000.00072
5999999.99859
5999999.99728
6000000.00174
5999999.99992
5999999.99963
6000000.00009
5999999.9989
5999999.99935
5999999.99825
5999999.99958
6000000.00006
6000000.00029
5999999.99676
5999999.99358
6000000.00773
6000000.00772
5999999.99901
6000000.00473
5999999.99913
5999999.99771
6000000.00235
5999999.99839
5999999.99989
5999999.99994
6000000.00025
6000000.00015
6000000.00001
6000000.00024
5999999.99918
6000000.00117
5999999.99764
6000000.00027
6000000.00276
5999999.99652
5999999.99736
6000000.00158
6000000.00015
6000000.00288
5999999.99965
6000000.00488
5999999.99696
5999999.99765
5999999.99729
6000000.00158
6000000.00028
6000000.00165
5999999.99947
6000000.0035
5999999.99637
6000000.00275
5999999.99891
5999999.99757
6000000.00246
6000000.00285
6000000.00687
5999999.99675
5999999.9941
6000000.00653
6000000.00256
5999999.99569
5999999.99531
5999999.99311
6000000.00314
6000000.00587
6000000.00007
5999999.99896
6000000.00646
6000000.00483
5999999.99815
5999999.99718
5999999.99897
5999999.99856
5999999.99728
6000000.0034
5999999.99734
6000000.00158
6000000.00159
5999999.9997
6000000.00383
5999999.99827
5999999.99976
5999999.99988
5999999.9997
6000000.00006
5999999.99928
6000000.00029
6000000.00011
6000000
5999999.99998
5999999.99998
6000000.00003
6000000.0001
5999999.99964
6000000.00054
5999999.99983
6000000.001
6000000.00016
5999999.99907
6000000.00085
5999999.99948
5999999.99928
5999999.99907
6000000.00002
5999999.99968
6000000.00017
5999999.99963
6000000.00033
6000000.00039
6000000.00538
6000000.00056
5999999.99823
6000000.00062
5999999.99917
5999999.99935
6000000.00002
5999999.99991
6000000.00022
6000000.00094
5999999.9985
6000000.00382
6000000.00082
6000000.00325
6000000.00464
5999999.99712
5999999.99631
5999999.99803
6000000.00228
6000000.00235
6000000.00002
5999999.99985
5999999.99886
6000000.00086
5999999.99532
6000000.00117
5999999.9965
5999999.99645
6000000.00118
6000000.00032
5999999.99886
5999999.99913
5999999.99982
5999999.99965
6000000.00029
6000000.00053
5999999.99969
6000000.00245
6000000.00021
6000000.00083
5999999.99858
6000000.00043
5999999.99793
6000000.00302
6000000.00225
6000000.00277
6000000.00195
6000000.00432
6000000.00223
6000000.00099
5999999.99437
6000000.00241
6000000.00134
5999999.99849
6000000.00075
5999999.9982
6000000.0025
6000000.0012
6000000.00221
5999999.99449
5999999.99232
6000000.00183
6000000.0064
6000000.00418
5999999.99946
5999999.99983
6000000.00036
6000000.00004
5999999.99992
6000000.00001
5999999.99997
6000000.00001
6000000.00015
6000000.00001
6000000.00012
5999999.99806
5999999.99793
6000000.00247
5999999.99927
5999999.99999
6000000.00003
5999999.99998
6000000.00006
6000000.00018
6000000.00016
5999999.99945
5999999.99994
6000000.00003
5999999.99983
5999999.99998
5999999.99991
5999999.99681
6000000.0002
6000000.0014
5999999.99733
6000000.00089
6000000.00706
5999999.99397
5999999.9967
6000000.00543
6000000.00869
5999999.9917
5999999.99619
6000000.00175
6000000.00371
5999999.99608
6000000.00293
6000000.00002
6000000.00421
5999999.99815
6000000.00724
6000000.0037
5999999.9925
6000000.00026
6000000.00549
5999999.99789
6000000.00502
5999999.99476
5999999.99893
6000000.00177
6000000.00261
6000000.00316
6000000.00063
6000000.00205
6000000.00059
5999999.99897
5999999.99944
5999999.99916
5999999.99979
5999999.99893
6000000.00033
5999999.99821
6000000.00261
5999999.9987
5999999.99981
5999999.99945
5999999.99987
5999999.99992
6000000
6000000.00082
6000000.00143
5999999.99732
6000000.00048
6000000.00049
6000000.00016
6000000.00226
5999999.99556
5999999.9974
6000000.00551
6000000.00158
5999999.99616
5999999.99542
5999999.99907
5999999.99527
5999999.99832
5999999.99492
6000000.00125
6000000.00433
5999999.99668
6000000.00059
5999999.9991
6000000.00135
5999999.99979
5999999.9992
6000000.00168
5999999.99755
6000000.00124
5999999.99998
6000000.00002
6000000.00016
6000000.00001
6000000.00001
6000000.00002
6000000.00018
5999999.99895
6000000.00171
5999999.99746
5999999.99973
5999999.99896
6000000.00099
6000000.00453
5999999.99819
5999999.99462
6000000.00239
6000000.00531
5999999.99822
6000000.00343
5999999.99828
6000000.00581
5999999.99709
5999999.99725
5999999.99672
6000000.00218
6000000.00158
5999999.99651
6000000.00175
6000000.00066
6000000.00066
6000000.00063
5999999.99948
6000000.00002
6000000.00022
5999999.99869
6000000.00276
6000000.00241
6000000.00095
6000000.00016
5999999.99967
5999999.99763
5999999.99787
6000000.00052
6000000.0006
5999999.99992
5999999.99885
5999999.99829
6000000.00094
5999999.99708
6000000.00072
5999999.99716
5999999.99422
5999999.99636
6000000.00293
5999999.99767
5999999.99619
6000000.00733
5999999.99874
6000000.00313
6000000.00023
5999999.99754
6000000.00392
5999999.99646
6000000.00313
5999999.99971
5999999.9996
6000000.00032
6000000.00001
6000000.00026
6000000.00009
6000000.00023
6000000.00172
5999999.99851
6000000.00275
6000000.00076
5999999.99824
6000000.00158
5999999.9998
5999999.9998
6000000.00404
5999999.99877
6000000.00306
6000000.00326
5999999.99354
5999999.99348
5999999.99584
5999999.99877
6000000.00068
6000000.00151
6000000.00189
5999999.99534
5999999.99172
6000000.00164
5999999.99679
5999999.99861
6000000.00509
5999999.99852
5999999.99888
6000000.00155
5999999.99726
5999999.99792
6000000.00657
5999999.99601
5999999.99877
5999999.99359
6000000.00123
6000000.00535
6000000.00007
5999999.99794
5999999.9917
6000000.00326
5999999.99972
6000000.00373
5999999.99822
5999999.99704
6000000.00251
5999999.99519
5999999.99452
6000000.00013
6000000.00308
5999999.99819
5999999.99786
5999999.99756
6000000.00185
6000000.00214
5999999.99842
6000000.00141
5999999.99883
5999999.99946
6000000.00055
5999999.99984
5999999.99998
6000000.00005
5999999.99984
6000000.00094
5999999.99679
6000000.00081
6000000.00011
5999999.99956
5999999.9976
6000000.00124
6000000.00065
5999999.99894
6000000.00071
6000000.00107
5999999.99825
5999999.99911
6000000.00025
5999999.99945
5999999.99772
5999999.99712
5999999.99873
5999999.99652
6000000.00169
6000000.00176
6000000.00064
6000000.00024
5999999.99948
6000000.00197
5999999.99823
6000000.00281
6000000.00207
5999999.99516
6000000.00434
6000000.00158
6000000.00048
6000000.0009
5999999.99868
6000000.00208
5999999.99944
5999999.9994
6000000.00042
6000000.0001
5999999.99976
5999999.99801
6000000.00278
5999999.99756
5999999.9996
6000000.00118
5999999.99751
6000000.00276
5999999.99736
6000000.00158
5999999.99929
5999999.99997
5999999.9982
6000000.00264
6000000.00637
5999999.99806
5999999.9982
6000000.00042
6000000.00255
5999999.99886
5999999.99816
6000000.00419
5999999.99856
5999999.99994
5999999.99989
6000000.00062
6000000.00259
5999999.99795
6000000.00364
5999999.99864
5999999.99871
6000000.00173
5999999.9998
5999999.9998
6000000.00272
6000000.00112
6000000.00213
5999999.99937
5999999.99874
5999999.99943
5999999.99681
5999999.99566
6000000.00211
6000000.00053
5999999.9987
5999999.99966
5999999.99921
6000000
5999999.99885
6000000.0003
5999999.99946
6000000.00011
6000000.00022
6000000.00002
6000000.00002
5999999.99952
6000000.00021
6000000.00002
5999999.99988
5999999.99989
5999999.99983
6000000.00007
6000000.00008
5999999.99987
5999999.99989
5999999.99982
6000000.00002
5999999.99982
5999999.99992
5999999.99982
5999999.99987
6000000.00001
6000000
5999999.99982
5999999.99998
6000000
5999999.99998
5999999.99864
6000000.00266
5999999.99827
5999999.99944
5999999.99952
5999999.99954
6000000.00004
5999999.99998
6000000.00001
6000000.00004
6000000.00037
6000000.00017
6000000.00002
6000000.00005
5999999.99972
5999999.99767
6000000.00256
6000000.00169
5999999.99922
5999999.99408
5999999.99243
6000000.0019
6000000.00466
6000000.00159
6000000.00406
5999999.99674
6000000.00454
5999999.99398
6000000.00062
5999999.9967
6000000.00049
6000000.00035
6000000.00191
5999999.99933
6000000.00158
5999999.99728
6000000.00088
6000000.00014
6000000.00004
6000000.00021
6000000.00012
5999999.99987
5999999.99925
6000000.0018
5999999.99985
6000000.00001
6000000.00002
5999999.99992
5999999.99993
6000000.00004
6000000.0002
5999999.99962
5999999.9992
5999999.99912
5999999.99877
5999999.99981
5999999.99896
5999999.99791
6000000.00113
6000000.00074
6000000.00064
6000000.00182
5999999.99793
5999999.99711
6000000.00773
6000000.00351
6000000.00085
6000000.00351
5999999.99749
5999999.99931
6000000.00019
5999999.99981
6000000.00021
6000000.00006
6000000.00046
5999999.99994
6000000.00183
5999999.99915
5999999.99916
5999999.99995
5999999.99969
6000000.00033
6000000.00425
6000000.00005
5999999.9976
6000000.00314
6000000.00196
6000000.00099
6000000.0009
5999999.99747
5999999.99854
6000000.00477
6000000.00416
6000000.00286
5999999.99809
5999999.99782
6000000.00238
5999999.99973
5999999.99853
5999999.99786
6000000.00275
6000000.00187
6000000.00027
6000000.00119
5999999.99887
6000000.00075
5999999.99959
6000000.00057
6000000.00056
6000000.00051
6000000.0006
5999999.99936
5999999.99903
6000000.00177
6000000.00141
5999999.99391
5999999.99519
6000000.00358
6000000.00138
6000000.00014
5999999.99845
6000000.0024
5999999.99772
6000000.00085
6000000.00149
6000000.00233
5999999.99415
6000000.00294
6000000.00179
6000000.00534
5999999.99506
5999999.99747
6000000.00144
6000000.00119
5999999.99441
5999999.99863
6000000.00291
6000000.0057
5999999.99893
6000000.00177
6000000.00142
6000000.00469
5999999.99712
6000000.00111
6000000.00169
5999999.99607
6000000.00329
6000000.0032
6000000.00568
6000000.00886
5999999.99506
5999999.99771
6000000.00413
6000000.00588
5999999.99401
5999999.99427
6000000.00232
5999999.99759
6000000.00001
6000000.00034
5999999.99738
6000000.0026
5999999.99787
6000000.00148
5999999.99718
5999999.99569
6000000.00275
6000000.00359
5999999.99923
6000000.00357
6000000.00166
6000000.00063
5999999.99946
6000000.00004
5999999.99854
6000000.00394
6000000.00775
5999999.9964
5999999.99884
5999999.99202
6000000.00533
6000000.00606
5999999.99591
5999999.99676
5999999.99629
5999999.99769
5999999.99618
6000000.00023
5999999.99937
6000000.0003
5999999.99974
5999999.99951
6000000.00261
5999999.99552
5999999.99581
5999999.99663
6000000.00529
5999999.99996
5999999.99966
6000000.00095
5999999.9995
6000000.00194
5999999.99936
6000000.00154
6000000.00618
5999999.99614
5999999.99499
5999999.99411
6000000.00248
6000000.00243
5999999.99345
5999999.99781
5999999.99672
6000000.00139
5999999.99847
5999999.99437
6000000.00394
6000000.00334
6000000.00003
6000000.00089
5999999.99997
6000000.00018
6000000.00007
6000000.00006
6000000.00001
5999999.99998
5999999.99992
5999999.99989
6000000.00015
6000000.00011
5999999.99929
6000000.00118
6000000.00477
6000000.0003
6000000.00028
6000000.002
5999999.9993
6000000.00247
6000000.00041
5999999.99969
5999999.99993
5999999.99992
6000000.00159
5999999.99776
5999999.99761
6000000.0014
5999999.99792
6000000.0006
5999999.99953
5999999.99991
5999999.99975
6000000
5999999.99985
6000000.00004
5999999.99988
5999999.99736
6000000.00265
5999999.9991
5999999.99943
6000000
5999999.99691
6000000.00074
6000000.00063
6000000.00004
6000000.00024
5999999.99899
6000000.00296
5999999.99987
5999999.99997
6000000.00053
5999999.99954
6000000.00045
5999999.99833
6000000.00431
6000000.00295
5999999.99685
5999999.99812
6000000.00218
5999999.99804
6000000.0029
5999999.99966
6000000.00001
5999999.99997
5999999.99975
6000000.00005
5999999.99976
6000000.00112
5999999.99773
6000000.00172
6000000.00079
6000000.00055
5999999.99962
6000000.00046
5999999.99731
6000000.00583
6000000.00302
5999999.99526
6000000.00156
6000000.0033
6000000.00408
5999999.99682
5999999.99589
6000000.00257
5999999.99879
5999999.99973
6000000.00008
5999999.99994
5999999.99992
5999999.99998
6000000.00002
5999999.99989
5999999.99993
5999999.99989
6000000.00006
5999999.99899
6000000.00154
5999999.99773
5999999.99943
6000000.00148
5999999.99458
6000000.00445
6000000.00432
6000000.00175
5999999.99909
6000000.00342
6000000.00486
5999999.99783
5999999.99674
6000000.00382
5999999.9998
6000000.00331
6000000.00473
6000000.00057
6000000.00598
6000000.00002
5999999.99978
6000000.00103
6000000.00078
5999999.99992
6000000
6000000.00339
5999999.99902
6000000.00121
6000000.00193
6000000.00333
6000000.00187
5999999.9947
6000000.00107
6000000.00041
5999999.9999
5999999.99928
6000000.00472
6000000.00243
5999999.99848
6000000.00241
5999999.99985
5999999.9998
6000000.00068
5999999.99933
6000000.0016
5999999.99328
6000000.00284
6000000.002
5999999.99947
5999999.99964
6000000.00023
6000000.00043
6000000.00026
6000000.00003
6000000.00002
6000000
6000000.00001
5999999.99989
6000000.00001
5999999.99982
6000000
6000000.00003
5999999.99962
6000000.00045
5999999.99998
5999999.99982
5999999.9999
6000000.00003
5999999.99922
5999999.99987
6000000.00029
6000000.00071
5999999.99811
5999999.99831
6000000.00087
6000000.00095
5999999.99971
6000000.00036
5999999.99883
6000000.00226
6000000.00168
6000000.00058
6000000.00035
5999999.99949
5999999.99875
6000000.00218
5999999.99516
6000000.0067
5999999.99664
5999999.99549
6000000.00441
6000000.00334
6000000.00544
6000000.00006
6000000.00021
5999999.99608
5999999.99518
5999999.99626
6000000.00121
5999999.9977
6000000.00419
5999999.9997
5999999.99813
6000000.00072
5999999.99789
6000000.00111
5999999.99807
6000000.00431
5999999.99471
5999999.99679
6000000.0051
5999999.99582
5999999.9969
5999999.99842
6000000.00113
6000000.00118
6000000.00084
6000000.00002
6000000.00091
5999999.9999
6000000.00191
5999999.99591
6000000.00111
6000000.00071
5999999.99994
5999999.99775
5999999.99962
5999999.9998
5999999.9976
5999999.99899
6000000.00086
5999999.99995
6000000.001
6000000.00177
5999999.99844
5999999.99893
6000000.00343
5999999.9993
5999999.99987
5999999.99998
6000000.00001
6000000.00001
6000000.00014
6000000.00002
6000000
6000000.00017
6000000.00039
5999999.9973
6000000.00018
5999999.99995
5999999.99984
6000000.00003
6000000.00049
5999999.99822
6000000.00267
6000000.00176
5999999.99498
6000000.00683
5999999.99383
5999999.99247
6000000.00337
6000000.00512
5999999.99342
5999999.99782
5999999.99799
5999999.99977
6000000.00156
5999999.9986
6000000.00119
5999999.99707
5999999.99783
5999999.99975
5999999.99835
6000000.00199
5999999.99746
6000000.00188
6000000.00316
5999999.99539
5999999.99686
5999999.99552
5999999.99969
6000000.0047
6000000.00157
5999999.99629
5999999.99298
6000000.00396
6000000.00334
5999999.9946
5999999.99867
6000000.00463
6000000.004
5999999.99737
5999999.99846
6000000.00313
5999999.99996
6000000.00002
6000000.00001
6000000
6000000.00027
6000000.00154
5999999.99873
5999999.99862
5999999.99932
5999999.99988
6000000.00054
6000000.00007
6000000.00025
5999999.99872
5999999.99797
6000000.00115
6000000.00016
6000000.00003
6000000.00002
6000000.00001
5999999.99981
5999999.99996
6000000.00009
5999999.99982
5999999.99856
6000000.0002
6000000.00254
5999999.99786
6000000.00004
5999999.99996
5999999.99591
6000000.00135
6000000.00063
6000000.00302
6000000.00133
6000000.00021
6000000.00044
6000000.00037
5999999.99777
6000000.00349
5999999.99761
6000000.00215
6000000.00154
6000000.00425
5999999.99971
5999999.9996
6000000.00598
6000000.00239
6000000.00235
6000000.00171
5999999.99603
5999999.9991
6000000.00192
6000000.0002
5999999.99755
5999999.99797
6000000.00132
5999999.9968
5999999.99942
5999999.99759
6000000.00021
6000000.00214
5999999.99921
5999999.99898
5999999.99872
5999999.99986
5999999.99979
6000000.00045
6000000.00009
6000000.00018
5999999.99949
6000000.00114
6000000.00139
5999999.99741
5999999.99999
6000000.00009
6000000.00002
6000000.00009
6000000.00005
6000000.00031
6000000.00113
5999999.99875
6000000.00182
6000000.00128
5999999.99706
6000000.00417
5999999.99485
5999999.99933
6000000.00265
6000000.00657
6000000.00312
6000000.00159
6000000.00166
5999999.99384
5999999.99766
5999999.99832
5999999.99971
6000000.00223
6000000.00515
5999999.99392
5999999.9971
5999999.9946
6000000.00589
6000000.0028
6000000.0025
5999999.99912
6000000.00045
6000000.00081
6000000.00137
5999999.9995
5999999.99909
5999999.99974
6000000.00001
6000000
6000000.00056
5999999.9992
6000000.00094
5999999.99925
6000000.00027
5999999.99887
5999999.99576
6000000.00191
6000000.0008
5999999.99578
5999999.99543
6000000.00557
5999999.99776
5999999.99566
6000000.00181
6000000.00645
5999999.9952
6000000.00356
5999999.999
5999999.99893
6000000.00404
5999999.99977
6000000.00013
6000000
6000000.00001
6000000.00005
6000000.00001
6000000.00005
6000000.00002
6000000.00007
6000000.00019
6000000.00025
6000000.00003
6000000.00002
5999999.99984
6000000.00048
6000000.00166
5999999.99644
6000000.00355
6000000.00518
5999999.99857
6000000.00167
6000000.00128
6000000.00152
5999999.99951
6000000.00044
5999999.99393
6000000.00092
5999999.99919
6000000.00152
6000000.0015
5999999.99894
5999999.99873
5999999.99922
5999999.99946
6000000.00015
5999999.99905
6000000.00099
6000000.00231
5999999.99867
5999999.99948
5999999.99946
6000000.00038
6000000.00004
6000000
5999999.99994
5999999.99947
6000000.00047
5999999.99951
5999999.99758
6000000.00297
5999999.99704
6000000.00185
5999999.99935
5999999.99957
5999999.99971
5999999.99927
6000000.00209
5999999.99538
6000000.00205
5999999.99954
5999999.99967
6000000.00002
5999999.99948
5999999.99992
5999999.99992
6000000.00052
5999999.99915
5999999.99914
6000000.00003
5999999.99993
5999999.99992
5999999.99998
6000000.00009
5999999.99993
5999999.99988
6000000
5999999.99992
5999999.9999
6000000.00001
5999999.99991
6000000.00048
5999999.99999
6000000.00013
6000000.00012
6000000.00101
5999999.99885
6000000.00195
5999999.99716
6000000.00167
6000000.00115
6000000.00204
6000000.00252
5999999.99713
5999999.99963
5999999.9984
6000000.00155
5999999.99913
5999999.99798
6000000.00072
5999999.99876
5999999.99941
5999999.99986
6000000.00036
6000000.00344
6000000.00114
6000000.00327
5999999.9989
6000000.00027
6000000.00191
5999999.99559
6000000.00136
5999999.99685
6000000.00408
6000000.00265
5999999.99504
5999999.99583
5999999.9955
6000000.00513
6000000.00199
6000000.00594
5999999.99696
5999999.99716
6000000.00096
5999999.99425
5999999.9953
5999999.99746
5999999.99822
6000000.00112
5999999.99619
5999999.99762
5999999.99271
5999999.9996
5999999.99511
5999999.9977
5999999.997
5999999.99695
5999999.99677
5999999.99547
6000000.00343
6000000.00064
6000000.00078
5999999.99614
6000000.00115
6000000
5999999.99976
6000000.00027
5999999.9996
5999999.99982
5999999.99677
6000000.00402
5999999.99412
5999999.9943
6000000.00136
5999999.99503
5999999.99499
6000000.00617
5999999.99524
5999999.99396
6000000.00064
6000000.00162
5999999.99991
6000000.0004
6000000.00007
6000000.00003
5999999.99991
6000000.00042
5999999.99954
6000000.00042
6000000.00013
6000000.00011
6000000.00005
5999999.99992
5999999.99993
6000000.00005
6000000.00068
5999999.99908
5999999.99948
6000000.00127
5999999.99982
5999999.99993
5999999.99982
5999999.99956
5999999.99912
6000000.0003
6000000.00002
5999999.99954
5999999.99993
5999999.99957
6000000.00015
6000000.00135
5999999.99944
6000000.00093
6000000.00195
6000000.00236
5999999.99727
5999999.99809
6000000.00224
5999999.99977
6000000.00041
6000000.00053
5999999.99776
6000000.00218
6000000.00155
6000000.00033
5999999.9991
6000000.00007
5999999.99779
6000000.00226
6000000.00051
6000000.0012
5999999.99911
5999999.99846
6000000.0046
6000000.00497
5999999.9928
5999999.99709
6000000.00215
6000000.00151
5999999.9988
6000000.00127
6000000.00019
6000000.00274
5999999.99896
6000000.00128
5999999.99986
5999999.99992
6000000
6000000.00003
5999999.99997
5999999.99998
5999999.99998
6000000
6000000.00003
6000000.00014
6000000
6000000
6000000.00001
5999999.99998
6000000.00016
6000000
6000000.00001
5999999.99993
5999999.99995
6000000.00014
6000000.00002
5999999.99995
6000000.00014
6000000
6000000
5999999.99991
6000000.00008
5999999.99995
6000000.00002
6000000.00009
5999999.99959
5999999.99954
5999999.99979
6000000.00016
6000000.00183
5999999.99922
5999999.99979
5999999.99992
6000000.00006
6000000
6000000.00009
5999999.99993
6000000
6000000.00001
5999999.99995
5999999.9995
6000000.00047
5999999.99883
6000000.0023
6000000.00005
5999999.99908
6000000.0015
5999999.99866
6000000.00267
6000000.00401
5999999.99917
5999999.99965
6000000.00637
6000000.00104
6000000.00058
6000000.00042
5999999.99982
6000000.00004
6000000.00006
6000000.00021
6000000.00004
6000000.00005
6000000.00007
5999999.99968
6000000.00037
6000000.00015
6000000.00022
6000000.00012
5999999.99989
6000000.00002
5999999.99992
6000000.00002
6000000.00001
6000000.00054
5999999.99825
5999999.99794
6000000.00316
5999999.99791
6000000.00291
5999999.99761
5999999.99917
6000000.0001
5999999.99771
5999999.99921
6000000.00268
5999999.99619
5999999.99429
6000000.00046
5999999.9944
5999999.99314
6000000.00158
5999999.9972
5999999.99938
5999999.99625
6000000.00185
6000000.00167
5999999.9977
6000000.00341
5999999.99821
5999999.99844
6000000.00163
6000000.00153
6000000.00026
5999999.99957
5999999.9999
6000000.00004
5999999.99992
5999999.99986
6000000.0007
5999999.99961
6000000.00125
5999999.99874
5999999.99869
6000000.00029
5999999.99891
5999999.99946
5999999.99811
5999999.99902
5999999.99908
5999999.99995
5999999.99906
6000000.0032
5999999.99933
5999999.99916
5999999.99962
5999999.99998
5999999.99996
5999999.99987
5999999.99984
6000000.00018
5999999.99998
5999999.99996
6000000.00011
6000000.00002
5999999.99998
6000000.00005
5999999.99998
6000000.00015
5999999.99983
6000000.00071
5999999.99787
5999999.99925
6000000.00037
6000000
5999999.99998
5999999.99997
5999999.99999
5999999.99989
5999999.99984
5999999.99998
5999999.99991
5999999.9993
6000000.00051
5999999.99956
6000000.00064
5999999.99985
5999999.99983
6000000.00137
5999999.99958
5999999.99981
5999999.99994
6000000.00005
5999999.99991
5999999.99998
5999999.99987
5999999.99991
5999999.99998
5999999.99988
5999999.99919
6000000.00024
5999999.99905
6000000.00283
5999999.99925
6000000.00034
6000000.0001
5999999.99986
5999999.99982
6000000.00065
5999999.99946
5999999.99552
6000000.0027
6000000.00011
6000000.00012
6000000.00008
6000000.00071
6000000.00069
5999999.99838
6000000.00277
6000000.00336
6000000.00044
5999999.9985
6000000.00264
6000000.00178
5999999.99817
6000000.0039
6000000.0004
6000000.00253
5999999.99689
5999999.99781
6000000.00065
5999999.99909
6000000.00002
5999999.99732
6000000.0031
6000000.00056
5999999.99959
6000000.00013
5999999.99841
6000000.00213
5999999.99876
6000000.00167
5999999.99619
6000000.00446
6000000.00398
5999999.99802
6000000.0015
5999999.99383
5999999.99344
6000000.00355
6000000.00281
6000000.00525
5999999.99869
5999999.99657
6000000.00457
5999999.99672
5999999.99848
5999999.99894
5999999.99885
6000000.0003
5999999.99941
6000000.00013
5999999.9997
5999999.99976
6000000.00007
5999999.99833
6000000.00137
5999999.99973
5999999.99959
6000000.001
5999999.9992
6000000.00082
5999999.99685
5999999.99997
5999999.99998
5999999.99964
5999999.99879
5999999.99843
6000000.00164
6000000.00075
5999999.99958
6000000.00548
6000000.00238
5999999.99623
6000000.00251
5999999.9987
6000000.00535
6000000.00364
5999999.99706
5999999.99583
5999999.99878
6000000.00653
6000000.00199
5999999.99768
5999999.9971
5999999.99536
6000000.00295
5999999.99685
5999999.99536
5999999.99883
5999999.99469
6000000.00409
5999999.9974
5999999.99719
5999999.99887
6000000.00149
5999999.99745
5999999.99839
6000000.00157
6000000.00105
5999999.9973
5999999.99745
5999999.9964
5999999.99643
5999999.99694
5999999.99791
6000000.00027
5999999.99466
5999999.99449
6000000.00061
5999999.99983
5999999.99592
5999999.99611
5999999.99524
5999999.99446
6000000.00465
5999999.99774
5999999.99349
5999999.99966
5999999.99549
6000000.00188
6000000.00501
5999999.99252
5999999.99435
5999999.99762
6000000.00516
6000000.00146
5999999.99844
6000000.00347
6000000.00429
5999999.99983
6000000.0061
5999999.99619
5999999.99354
6000000.00374
6000000.0015
5999999.99955
5999999.99458
5999999.99642
6000000.00276
5999999.9961
5999999.99855
6000000.00211
5999999.99893
6000000.0029
6000000.00717
6000000.00335
5999999.99943
5999999.9952
5999999.9972
6000000.00586
6000000.00226
5999999.99558
5999999.99707
6000000.00085
6000000.00632
6000000.00101
5999999.99893
5999999.99983
6000000.00214
5999999.99843
5999999.99911
6000000.0041
6000000.00219
5999999.99694
6000000.00265
5999999.99661
5999999.99961
5999999.99735
6000000.00099
6000000.00162
5999999.99401
5999999.99997
6000000.00111
5999999.99412
5999999.99771
6000000.00331
5999999.99814
5999999.99812
6000000.00302
5999999.99864
5999999.99663
5999999.99602
5999999.99852
5999999.99675
5999999.9993
5999999.99784
6000000.0069
5999999.99756
6000000.00088
6000000.00534
5999999.99863
6000000.00198
6000000.00005
6000000.00876
5999999.99704
6000000.00057
6000000.00644
6000000.00708
5999999.99885
5999999.99765
6000000.01012
6000000.008
6000000.00618
5999999.99811
5999999.99779
6000000.00804
6000000.00865
6000000.00175
6000000.00672
6000000.00241
5999999.99475
6000000.00679
6000000.00816
6000000.00009
5999999.99709
6000000.00766
6000000.00267
5999999.99382
6000000.00237
6000000.00221
6000000.00908
6000000.00791
5999999.99754
6000000.00213
6000000.00736
5999999.99624
5999999.99909
6000000.00658
6000000.00943
6000000.00042
6000000.00627
6000000.00575
6000000.00485
5999999.99802
6000000.00103
6000000.00847
6000000.00952
6000000.01026
6000000.00304
6000000.00286
6000000.00642
6000000.01052
5999999.99967
6000000.00273
6000000.00583
5999999.99652
6000000.00564
6000000.00531
6000000.0098
6000000.00422
6000000.00747
6000000.00584
5999999.99346
6000000.00687
6000000.00217
5999999.9983
6000000.00881
5999999.9988
5999999.99988
5999999.99863
6000000.0005
5999999.99829
5999999.99971
5999999.99894
5999999.99954
5999999.99932
5999999.99948
5999999.99737
5999999.99784
5999999.9996
5999999.99816
6000000.00019
5999999.99821
5999999.99873
5999999.99805
6000000.00018
5999999.99802
5999999.99732
5999999.99841
5999999.99968
5999999.9985
5999999.99881
5999999.99964
5999999.99736
5999999.9985
5999999.99927
5999999.99574
5999999.9984
6000000.00026
5999999.99911
5999999.99659
5999999.99943
5999999.99757
5999999.9999
5999999.99893
5999999.99872
5999999.99669
5999999.99924
5999999.99997
5999999.99791
5999999.99939
5999999.99968
5999999.99868
5999999.99878
5999999.99923
5999999.99673
5999999.99678
5999999.99934
5999999.99991
6000000.00013
6000000.0003
5999999.99817
5999999.99909
5999999.99795
5999999.9982
5999999.99836
5999999.9987
5999999.99962
6000000.00034
6000000.00208
5999999.99838
5999999.99938
5999999.99942
5999999.99981
5999999.99964
6000000.0007
5999999.99975
5999999.99958
6000000.00041
5999999.99973
5999999.99965
5999999.99973
5999999.99973
6000000.00052
5999999.99994
5999999.99978
5999999.99955
6000000.00025
6000000.00037
5999999.99982
6000000.00026
5999999.99979
6000000.00035
5999999.99986
5999999.99975
6000000.00018
5999999.99998
6000000.00041
5999999.99984
6000000.00004
5999999.99953
6000000.00031
6000000.00043
6000000.0002
6000000.00051
5999999.99983
6000000.00046
6000000.00048
5999999.99973
6000000.00017
5999999.99981
6000000.00033
6000000.00008
5999999.99966
6000000.00062
6000000.00024
6000000.0004
6000000.00029
5999999.99952
5999999.99972
5999999.99977
6000000.00009
6000000.00007
6000000.00031
6000000.00042
5999999.9997
5999999.99995
6000000.00025
6000000.00002
6000000.00035
6000000.00013
6000000.00016
6000000.00041
5999999.9997
6000000.00061
6000000.00068
6000000.00091
6000000.00091
6000000.00104
6000000.00068
6000000.00096
6000000.00083
6000000.00125
6000000.0007
6000000.0008
6000000.00079
6000000.00082
6000000.00075
6000000.00077
6000000.00083
6000000.00092
6000000.00071
6000000.00086
6000000.00107
6000000.00085
6000000.00101
6000000.00111
6000000.00065
6000000.00097
6000000.00088
6000000.00084
6000000.00068
6000000.00055
6000000.00093
6000000.00084
6000000.0008
6000000.00092
6000000.00081
6000000.00115
6000000.00069
6000000.00094
6000000.00065
6000000.00078
6000000.00055
6000000.0008
6000000.00094
6000000.00092
6000000.00098
6000000.00084
6000000.00089
6000000.00091
6000000.00075
6000000.00094
6000000.0011
6000000.0011
6000000.00074
6000000.0008
6000000.00072
6000000.00089
6000000.00095
6000000.0009
6000000.00096
6000000.00098
6000000.00097
6000000.0009
6000000.00083
6000000.00112
6000000.00132
6000000.00085
5999999.99902
5999999.9988
5999999.99891
5999999.99899
5999999.99881
5999999.9993
5999999.99889
5999999.99884
5999999.9987
5999999.9988
5999999.99893
5999999.99911
5999999.99909
5999999.9989
5999999.99873
5999999.99883
5999999.99878
5999999.99902
5999999.99892
5999999.9991
5999999.99891
5999999.99882
5999999.99912
5999999.99911
5999999.99883
5999999.99894
5999999.99932
5999999.99886
5999999.99895
5999999.99905
5999999.99901
5999999.99942
5999999.99908
5999999.99911
5999999.99888
5999999.99888
5999999.99918
5999999.9988
5999999.99867
5999999.99873
5999999.99903
5999999.99909
5999999.99886
5999999.99905
5999999.999
5999999.99899
5999999.99938
5999999.9991
5999999.99882
5999999.99899
5999999.99889
5999999.99873
5999999.99888
5999999.9987
5999999.99898
5999999.99888
5999999.99903
5999999.99905
5999999.99897
5999999.99895
5999999.9989
5999999.99902
5999999.99889
5999999.99882
5999999.99954
5999999.99935
5999999.99953
5999999.99974
5999999.99969
5999999.99972
5999999.99965