/*--------------------------------*- C++ -*----------------------------------*\
  =========                 |
  \\      /  F ield         | OpenFOAM: The Open Source CFD Toolbox
   \\    /   O peration     | Website:  https://openfoam.org
    \\  /    A nd           | Version:  6
     \\/     M anipulation  |
\*---------------------------------------------------------------------------*/
FoamFile
{
    version     2.0;
    format      ascii;
    class       volVectorField;
    location    "4.69e-05";
    object      U;
}
// * * * * * * * * * * * * * * * * * * * * * * * * * * * * * * * * * * * * * //

dimensions      [0 1 -1 0 0 0 0];

internalField   nonuniform List<vector> 
8192
(
(-88.322 0 -2.77662700546e-10)
(-88.3219999996 0 -7.09933997465e-11)
(-88.3220000001 0 -6.77768488091e-11)
(-88.3220000003 0 -2.4664941325e-10)
(-88.3219999995 0 -6.18057310872e-11)
(-88.3219999997 0 1.478859049e-11)
(-88.3220000003 0 -2.02643670989e-12)
(-88.322 0 8.8639286273e-11)
(-88.322 0 -2.46658958529e-10)
(-88.322 0 -5.61468687638e-10)
(-88.3219999999 0 -6.83807224453e-10)
(-88.322 0 3.52178918038e-10)
(-88.3220000002 0 6.46144319206e-10)
(-88.322 0 -7.16757005496e-10)
(-88.3219999999 0 -6.11501409658e-10)
(-88.3219999999 0 3.41674430305e-10)
(-88.3219999998 0 2.63804082e-10)
(-88.3219999999 0 6.07987386504e-10)
(-88.3220000002 0 -4.15348228427e-10)
(-88.322 0 -5.3828824881e-10)
(-88.3219999997 0 2.5918481351e-10)
(-88.3220000003 0 3.7160420313e-10)
(-88.3220000003 0 -5.64355642416e-10)
(-88.3219999998 0 -5.46373181462e-10)
(-88.322 0 1.58168589356e-10)
(-88.3219999999 0 1.64808538577e-10)
(-88.3219999999 0 2.05718480322e-10)
(-88.3219999999 0 1.73370890159e-10)
(-88.3220000002 0 2.85023681034e-10)
(-88.3220000002 0 -1.44082613764e-10)
(-88.3219999999 0 2.02335308122e-10)
(-88.3219999997 0 -3.88785378537e-11)
(-88.321999999 0 1.15022389871e-10)
(-88.3220000017 0 5.16854410042e-10)
(-88.3220000025 0 -7.88192293376e-10)
(-88.3219999988 0 -6.06598266504e-10)
(-88.3219999996 0 -1.78972951949e-11)
(-88.3219999996 0 -5.42296927223e-10)
(-88.3219999986 0 1.71532154721e-10)
(-88.3220000006 0 1.60143421733e-10)
(-88.3220000001 0 -4.24969030489e-11)
(-88.3219999998 0 5.16124902329e-11)
(-88.3220000001 0 -1.26147728745e-11)
(-88.322 0 -1.46691716076e-11)
(-88.322 0 -5.47673198368e-11)
(-88.322 0 -3.36095914658e-11)
(-88.322 0 -1.79611674461e-11)
(-88.322 0 -1.76973839676e-11)
(-88.322 0 2.23652768026e-11)
(-88.3219999998 0 -8.24189841002e-11)
(-88.3219999999 0 1.08033377555e-10)
(-88.3220000005 0 -4.87198277435e-11)
(-88.3219999995 0 -1.95702636678e-10)
(-88.3219999994 0 3.16551561657e-10)
(-88.3220000011 0 1.74774315494e-10)
(-88.3220000006 0 -2.13373415096e-10)
(-88.322 0 -3.61064213165e-11)
(-88.3219999998 0 -1.63789129619e-10)
(-88.3220000002 0 -3.84698269027e-11)
(-88.3219999992 0 -2.85344761498e-10)
(-88.3219999985 0 3.24224625903e-10)
(-88.3219999998 0 3.80615526466e-10)
(-88.3220000008 0 3.53209110755e-10)
(-88.3220000014 0 -6.2364585667e-12)
(-88.322 0 -2.98512967398e-10)
(-88.3219999999 0 -8.2613982063e-11)
(-88.3220000001 0 1.09298503094e-10)
(-88.3219999997 0 9.23938854099e-12)
(-88.322 0 2.20013804305e-10)
(-88.3220000002 0 -1.13707879795e-10)
(-88.3219999996 0 4.23355534583e-11)
(-88.3220000005 0 5.43807838783e-12)
(-88.3220000012 0 -4.90846006574e-12)
(-88.3220000008 0 -5.61111496329e-11)
(-88.3219999983 0 6.2503938474e-11)
(-88.3219999974 0 -2.22576980634e-10)
(-88.3220000019 0 -2.2807482092e-11)
(-88.3220000024 0 -1.72700604695e-10)
(-88.321999998 0 -2.92119916859e-10)
(-88.3219999984 0 2.81667237082e-10)
(-88.3219999996 0 2.07355606024e-10)
(-88.3220000015 0 1.46703475034e-10)
(-88.3220000021 0 -3.19082926816e-10)
(-88.3219999988 0 -1.84011032674e-10)
(-88.3219999985 0 -4.84108295466e-11)
(-88.3220000013 0 2.17831526249e-13)
(-88.3220000016 0 1.93001730945e-10)
(-88.3219999988 0 -6.70756526751e-11)
(-88.3219999986 0 4.21231514112e-10)
(-88.322 0 -2.03782315534e-10)
(-88.3220000001 0 3.11173569514e-10)
(-88.3219999999 0 2.84406717897e-10)
(-88.3220000005 0 -5.30434164323e-11)
(-88.322 0 2.55743020219e-11)
(-88.3219999999 0 6.44955825295e-11)
(-88.3220000004 0 1.53553012495e-11)
(-88.3219999998 0 -2.12368637439e-10)
(-88.3220000003 0 -4.42955963687e-10)
(-88.322 0 5.27014564933e-10)
(-88.3219999996 0 6.09081436319e-10)
(-88.3220000001 0 1.33145526898e-12)
(-88.322 0 2.99154439354e-10)
(-88.322 0 -1.72114967205e-10)
(-88.322 0 -1.98252578923e-10)
(-88.322 0 1.26412713441e-10)
(-88.322 0 -7.43700760985e-11)
(-88.322 0 5.6922324286e-11)
(-88.322 0 -1.81392858949e-10)
(-88.322 0 -3.89796595397e-10)
(-88.322 0 -3.26436817812e-10)
(-88.322 0 -3.17590885259e-10)
(-88.322 0 -3.74209935523e-10)
(-88.322 0 -3.60131382804e-10)
(-88.322 0 -9.50471889425e-11)
(-88.322 0 2.98562389563e-10)
(-88.3220000001 0 -8.26251810619e-11)
(-88.3219999998 0 5.46783440746e-11)
(-88.322 0 -9.72523627755e-11)
(-88.3220000001 0 -2.70662858932e-10)
(-88.322 0 4.10199319314e-10)
(-88.322 0 -1.6346987168e-10)
(-88.3220000001 0 -1.74678816126e-10)
(-88.322 0 -3.85508891248e-10)
(-88.3219999999 0 8.3208473045e-10)
(-88.322 0 3.1530681352e-10)
(-88.3220000001 0 -7.90662561114e-10)
(-88.3220000001 0 -1.0539770241e-09)
(-88.322 0 -4.34654345578e-10)
(-88.3219999994 0 6.59552080887e-11)
(-88.3219999989 0 8.83217795361e-11)
(-88.322 0 -2.68998017359e-11)
(-88.322 0 1.80417406847e-10)
(-88.3219999999 0 -1.39338635806e-10)
(-88.322 0 1.30881648325e-10)
(-88.322 0 -3.72007273556e-11)
(-88.322 0 -8.69663546008e-11)
(-88.3220000001 0 2.18524040785e-10)
(-88.3219999999 0 5.2477763771e-10)
(-88.3220000003 0 6.41732542422e-10)
(-88.3220000001 0 -2.59128632395e-10)
(-88.322 0 -5.62008429453e-10)
(-88.3220000005 0 5.29195124361e-10)
(-88.3219999989 0 5.4988823618e-10)
(-88.3219999989 0 -3.59099065046e-10)
(-88.3220000001 0 -2.70806499655e-10)
(-88.3220000009 0 -5.51104640646e-10)
(-88.3220000008 0 4.44753109323e-10)
(-88.3219999994 0 5.00277492315e-10)
(-88.3219999993 0 -2.24377131195e-10)
(-88.3219999998 0 -2.18723817551e-10)
(-88.3220000004 0 5.39658963995e-10)
(-88.3219999994 0 5.41868533103e-10)
(-88.3220000003 0 -8.33025911082e-11)
(-88.322 0 -1.5182703025e-10)
(-88.3219999989 0 -8.59611645254e-11)
(-88.3220000007 0 8.3083798778e-11)
(-88.3220000007 0 -6.00570747695e-11)
(-88.3219999999 0 4.01075409804e-11)
(-88.322 0 8.78541382977e-11)
(-88.3220000003 0 -1.11147776514e-11)
(-88.322 0 -4.54610783973e-10)
(-88.322 0 4.29005588212e-10)
(-88.3220000001 0 6.04915923848e-10)
(-88.322 0 -3.79151831213e-10)
(-88.3220000003 0 -6.68203024708e-10)
(-88.322 0 8.03457764446e-10)
(-88.3219999997 0 3.95374609517e-10)
(-88.322 0 -3.62158008833e-10)
(-88.322 0 -4.29569647374e-10)
(-88.322 0 1.76028423073e-10)
(-88.3220000004 0 -2.71136248151e-10)
(-88.322000001 0 -6.17035616064e-11)
(-88.3220000003 0 -3.29632743314e-10)
(-88.3219999998 0 5.88878808717e-11)
(-88.3220000001 0 -5.76735481904e-10)
(-88.3219999999 0 -5.88153515418e-10)
(-88.3219999995 0 4.75821641865e-10)
(-88.3219999986 0 2.03656278103e-11)
(-88.322 0 -3.74804480149e-10)
(-88.322000001 0 1.70735468252e-10)
(-88.3219999995 0 -4.32329684277e-10)
(-88.322 0 3.97442499027e-10)
(-88.322 0 6.25289569304e-11)
(-88.3220000004 0 -3.37652367258e-10)
(-88.3220000012 0 -3.57851167831e-10)
(-88.3220000003 0 -3.78648872451e-10)
(-88.3219999982 0 -1.63901014126e-10)
(-88.3219999979 0 -1.78454480969e-10)
(-88.3220000018 0 -1.52163302634e-10)
(-88.3220000026 0 8.19984613088e-11)
(-88.3220000001 0 5.28293346811e-11)
(-88.3219999999 0 7.28848582982e-11)
(-88.322 0 6.0951447093e-10)
(-88.322 0 1.81058649598e-10)
(-88.322 0 -3.66381759715e-11)
(-88.322 0 1.53174704109e-10)
(-88.322 0 -1.81389456568e-10)
(-88.322 0 3.50299030904e-11)
(-88.322 0 1.24027700631e-11)
(-88.322 0 3.58774846042e-11)
(-88.322 0 2.34463795253e-11)
(-88.322 0 9.06659567148e-11)
(-88.3219999998 0 -2.96348171789e-11)
(-88.3219999997 0 1.60500589325e-10)
(-88.3220000004 0 -1.04265213684e-11)
(-88.3220000001 0 3.63774151161e-10)
(-88.3219999998 0 3.31021922949e-10)
(-88.322 0 -2.69804008318e-10)
(-88.322 0 -1.9870200177e-10)
(-88.322 0 -2.73295923758e-10)
(-88.322 0 4.70564368244e-10)
(-88.322 0 4.29656676876e-10)
(-88.322 0 -4.89497767863e-10)
(-88.3219999999 0 -5.09818989231e-10)
(-88.322 0 3.14218861999e-10)
(-88.322 0 4.88135165831e-10)
(-88.322 0 -1.95003000828e-10)
(-88.322 0 5.59887940555e-10)
(-88.3219999996 0 -1.95394174542e-10)
(-88.3219999999 0 3.44194223476e-11)
(-88.3220000005 0 -1.04341881632e-10)
(-88.3219999997 0 -2.52895990228e-10)
(-88.3219999999 0 8.42147939634e-11)
(-88.3220000014 0 -8.43373813999e-11)
(-88.3219999989 0 6.0221370649e-12)
(-88.3219999983 0 -7.98375408249e-11)
(-88.3220000016 0 4.19505764657e-11)
(-88.3220000021 0 9.07733171337e-11)
(-88.3219999979 0 -7.00113686086e-11)
(-88.3219999979 0 3.50961860173e-10)
(-88.3220000022 0 -1.96761493273e-11)
(-88.3220000016 0 3.57241793834e-11)
(-88.3219999989 0 -6.4749507957e-11)
(-88.3219999998 0 -4.79430523413e-12)
(-88.3220000004 0 -7.57526445248e-11)
(-88.3220000001 0 1.83234609756e-10)
(-88.3219999997 0 4.19638266791e-10)
(-88.3220000005 0 3.2416403446e-10)
(-88.3220000013 0 3.38092695814e-10)
(-88.3219999979 0 2.59963290336e-10)
(-88.321999999 0 4.98471785919e-10)
(-88.3220000016 0 1.98898746794e-10)
(-88.3219999998 0 -3.53172516174e-10)
(-88.3220000003 0 1.08846676309e-10)
(-88.3219999993 0 -1.84027777731e-10)
(-88.3219999991 0 2.4458206074e-10)
(-88.3220000015 0 5.47491915975e-10)
(-88.3220000007 0 -5.26146382451e-10)
(-88.3220000001 0 -1.51106098913e-10)
(-88.3219999997 0 4.23905718213e-10)
(-88.3219999996 0 6.34863594478e-11)
(-88.3219999998 0 -4.48350075056e-10)
(-88.3219999995 0 -1.00564761713e-09)
(-88.3219999998 0 8.22671755544e-10)
(-88.3220000001 0 9.32355109916e-10)
(-88.322 0 7.17144820299e-10)
(-88.3220000005 0 -3.04517528299e-10)
(-88.3220000001 0 -1.11464810141e-10)
(-88.322 0 2.10585961733e-10)
(-88.3220000004 0 -3.55248305618e-11)
(-88.322 0 -5.24712469394e-11)
(-88.3219999996 0 -1.12897009163e-11)
(-88.322 0 3.27252795921e-12)
(-88.322 0 2.89734874976e-11)
(-88.322 0 1.94574858131e-11)
(-88.322 0 -4.80398290496e-12)
(-88.322 0 6.08739491326e-11)
(-88.3220000001 0 -2.45119623974e-10)
(-88.3219999997 0 -2.59181731898e-10)
(-88.3219999999 0 3.15172283169e-11)
(-88.3220000002 0 -2.43585855797e-11)
(-88.322 0 3.25385912528e-11)
(-88.3220000001 0 1.41255139915e-10)
(-88.3219999995 0 1.40553663567e-10)
(-88.3219999995 0 -2.14048002951e-11)
(-88.3220000014 0 1.51572800142e-12)
(-88.3220000012 0 2.66343891906e-11)
(-88.3219999982 0 2.29360330826e-11)
(-88.3219999985 0 7.13741153646e-11)
(-88.3220000005 0 -1.25157982388e-10)
(-88.3220000001 0 1.20499801945e-10)
(-88.3220000001 0 3.58252243349e-12)
(-88.3219999999 0 2.42668624222e-10)
(-88.3220000005 0 2.79518366121e-10)
(-88.3220000012 0 3.49638670778e-10)
(-88.3219999995 0 -2.52390780432e-11)
(-88.3219999996 0 1.51170011248e-10)
(-88.3220000004 0 3.80613505871e-10)
(-88.322 0 -3.03280451591e-11)
(-88.322 0 -5.21274997227e-10)
(-88.3219999999 0 -7.3725694442e-10)
(-88.3220000002 0 1.74144977549e-10)
(-88.3219999997 0 8.33316135816e-10)
(-88.3219999999 0 -1.04251774208e-09)
(-88.3220000003 0 -2.80362046833e-10)
(-88.322 0 1.72631842712e-10)
(-88.322 0 3.76470255426e-10)
(-88.322 0 -1.49362428972e-10)
(-88.322 0 2.36544992713e-10)
(-88.322 0 6.69375461499e-11)
(-88.322 0 3.03421847398e-10)
(-88.322 0 -4.57100006998e-11)
(-88.3220000001 0 5.74665939144e-10)
(-88.3219999997 0 5.07436462411e-10)
(-88.3219999997 0 -4.13680657348e-10)
(-88.3220000003 0 -1.19871113726e-10)
(-88.3220000001 0 2.83465764598e-10)
(-88.3220000007 0 -9.87379830109e-12)
(-88.3219999993 0 3.4756897549e-10)
(-88.3219999985 0 -4.00075613912e-10)
(-88.3220000015 0 -6.56157468157e-11)
(-88.3220000017 0 -2.32163274484e-10)
(-88.3219999992 0 1.46859284594e-10)
(-88.3219999999 0 1.16469943974e-10)
(-88.3219999998 0 -3.02305626351e-10)
(-88.322 0 7.55534687909e-10)
(-88.3219999993 0 6.25313336195e-10)
(-88.3219999987 0 3.83680204685e-10)
(-88.3220000002 0 1.60319975289e-10)
(-88.3220000004 0 -8.47089384147e-12)
(-88.3220000002 0 -1.02297494064e-10)
(-88.321999999 0 -2.05135857251e-10)
(-88.322 0 3.88633820659e-10)
(-88.3220000004 0 6.03174362669e-10)
(-88.322 0 -1.48966164436e-11)
(-88.3219999999 0 4.25254548125e-10)
(-88.322 0 3.29237869315e-10)
(-88.322 0 -4.17835219328e-10)
(-88.322 0 1.42712851574e-11)
(-88.3219999999 0 9.03696333032e-11)
(-88.3220000003 0 -4.0477447153e-11)
(-88.3220000003 0 1.71800431048e-10)
(-88.3219999999 0 1.74647840899e-10)
(-88.3219999998 0 -4.96484858944e-10)
(-88.3219999998 0 4.92458959552e-10)
(-88.3219999997 0 3.98628055481e-10)
(-88.3219999998 0 5.13203274011e-10)
(-88.3220000003 0 1.15623160104e-10)
(-88.3220000003 0 -6.60342049079e-10)
(-88.322 0 -2.44306949729e-10)
(-88.3219999998 0 8.75073814712e-10)
(-88.3219999999 0 1.06426803164e-09)
(-88.3220000004 0 -6.13025610163e-10)
(-88.3219999999 0 -6.06605047105e-10)
(-88.3219999998 0 -4.34938084453e-10)
(-88.3219999998 0 -6.18733203735e-11)
(-88.3219999991 0 1.13847908681e-10)
(-88.3219999996 0 -4.29642043974e-10)
(-88.3220000012 0 5.05347926577e-10)
(-88.3220000001 0 6.79776570065e-10)
(-88.3219999991 0 -1.04506466773e-10)
(-88.3220000019 0 -3.57296510355e-10)
(-88.3220000007 0 9.2402397898e-11)
(-88.3219999995 0 1.55927462668e-10)
(-88.3220000002 0 1.15360446015e-10)
(-88.321999999 0 -1.15515560871e-10)
(-88.3220000003 0 -6.78034799526e-12)
(-88.3220000001 0 -5.76184654477e-11)
(-88.3219999999 0 4.87663685423e-12)
(-88.3220000003 0 5.21216697093e-11)
(-88.3219999996 0 4.28857504511e-11)
(-88.322 0 -1.98509179941e-11)
(-88.322 0 1.34032903918e-11)
(-88.322 0 8.47027887033e-12)
(-88.322 0 7.62384512735e-12)
(-88.322 0 1.25651586507e-11)
(-88.3220000001 0 -7.20790062323e-11)
(-88.3219999998 0 2.82026381987e-10)
(-88.3220000001 0 -1.95655255799e-10)
(-88.3220000002 0 -7.34520026564e-11)
(-88.3219999996 0 -1.59832060341e-11)
(-88.3220000002 0 8.61726077538e-11)
(-88.3220000001 0 2.6644839532e-10)
(-88.3219999999 0 -4.19730582832e-10)
(-88.3220000012 0 -4.4992725989e-10)
(-88.3220000002 0 2.99590097137e-10)
(-88.3219999994 0 3.31450103661e-10)
(-88.3220000007 0 4.42023329702e-11)
(-88.3219999983 0 3.91577970898e-10)
(-88.321999998 0 -8.66817198583e-11)
(-88.3220000002 0 4.47204365671e-10)
(-88.3220000007 0 -2.58897682238e-10)
(-88.3220000009 0 -7.63821602158e-11)
(-88.3220000009 0 -2.44273750919e-10)
(-88.3220000004 0 4.66957814949e-10)
(-88.3219999991 0 2.181940244e-11)
(-88.3219999985 0 -2.6149542512e-10)
(-88.3220000012 0 4.58120363776e-11)
(-88.3220000003 0 2.73387410822e-11)
(-88.3219999989 0 4.84810530225e-11)
(-88.3220000018 0 -8.18854093655e-11)
(-88.3220000007 0 6.04065119862e-11)
(-88.3219999991 0 -1.63739381122e-10)
(-88.3220000002 0 -1.67882922413e-10)
(-88.3219999999 0 4.05396308881e-10)
(-88.3219999997 0 -3.77068207042e-10)
(-88.3220000011 0 -3.3835075531e-10)
(-88.3219999993 0 -6.06778542126e-11)
(-88.3219999984 0 -1.20286543811e-10)
(-88.3219999999 0 3.885589822e-12)
(-88.3220000008 0 -2.32512230593e-10)
(-88.3220000019 0 -1.1536484665e-10)
(-88.322 0 3.26337547963e-11)
(-88.3219999983 0 -1.56530345806e-12)
(-88.3219999986 0 -9.36374167092e-14)
(-88.3220000011 0 -2.94633436248e-11)
(-88.3220000018 0 1.02872135316e-12)
(-88.322 0 1.86397124657e-12)
(-88.321999999 0 -7.51859840119e-11)
(-88.321999999 0 4.60872202181e-11)
(-88.3220000007 0 -3.0695063914e-10)
(-88.3219999996 0 -3.39807751474e-10)
(-88.321999999 0 -5.61683255667e-10)
(-88.3220000008 0 2.81152386877e-10)
(-88.3220000017 0 -4.33324135102e-10)
(-88.322 0 -3.6926014564e-10)
(-88.321999999 0 7.87766861893e-10)
(-88.3219999999 0 1.9354906379e-10)
(-88.3220000004 0 -1.21219646391e-10)
(-88.3220000004 0 -4.34326726177e-10)
(-88.3219999997 0 -1.38590473376e-10)
(-88.3219999999 0 6.08177248667e-10)
(-88.322 0 -1.57992626436e-10)
(-88.3219999999 0 -8.99288814995e-11)
(-88.3220000001 0 4.41503716407e-11)
(-88.322 0 7.97965385526e-11)
(-88.322 0 -1.81558002263e-10)
(-88.322 0 6.02714787913e-11)
(-88.322 0 3.31540185699e-11)
(-88.3220000001 0 8.58640329849e-12)
(-88.3219999996 0 -9.75006111693e-12)
(-88.322 0 -3.32301008704e-11)
(-88.3220000004 0 2.94351058092e-11)
(-88.322 0 -3.36058802649e-11)
(-88.3219999998 0 1.09054114665e-10)
(-88.3220000002 0 -3.93208133382e-11)
(-88.3220000003 0 6.35809027175e-11)
(-88.3219999998 0 -6.89956704804e-11)
(-88.322 0 4.66642335334e-11)
(-88.3220000002 0 3.23848112568e-10)
(-88.3219999998 0 2.65146039025e-11)
(-88.3219999999 0 8.99662929186e-11)
(-88.3220000001 0 4.70256167127e-10)
(-88.3219999999 0 -5.01045314675e-10)
(-88.3219999997 0 -4.50135212382e-10)
(-88.3219999997 0 5.75135970399e-11)
(-88.3220000002 0 2.42653637147e-10)
(-88.3220000005 0 -9.78996036675e-11)
(-88.322 0 8.92281628927e-11)
(-88.3220000004 0 1.98135025944e-10)
(-88.3219999999 0 -3.66104903335e-10)
(-88.3219999999 0 -6.28128473627e-10)
(-88.322 0 1.94852612458e-10)
(-88.3220000001 0 -4.35109569769e-10)
(-88.3219999999 0 -3.51988756558e-10)
(-88.3220000001 0 4.12833955057e-10)
(-88.3220000005 0 -2.67154196651e-11)
(-88.3219999986 0 -1.18319010291e-10)
(-88.3220000007 0 7.22523492659e-11)
(-88.3220000019 0 -1.64806522498e-10)
(-88.3219999993 0 -1.06860067001e-10)
(-88.3219999993 0 3.66109772186e-10)
(-88.3219999996 0 -4.90613659201e-10)
(-88.3219999999 0 -3.5519802059e-10)
(-88.3219999999 0 -4.97858989969e-10)
(-88.3219999998 0 -4.32444062487e-12)
(-88.3220000001 0 4.43306092125e-10)
(-88.322 0 2.80642897545e-11)
(-88.322 0 -3.75733231209e-10)
(-88.3219999999 0 -6.82249073819e-10)
(-88.3220000003 0 1.90628262944e-10)
(-88.322 0 2.00906801387e-10)
(-88.3219999997 0 2.21381338609e-10)
(-88.3220000003 0 -2.71304120502e-10)
(-88.3219999998 0 -2.86092139365e-10)
(-88.3220000001 0 5.7759074242e-11)
(-88.322 0 -4.81929335187e-10)
(-88.322 0 -4.5001621401e-10)
(-88.3220000003 0 -9.8142193885e-11)
(-88.3219999995 0 4.07994505675e-10)
(-88.3219999997 0 -7.6187979562e-11)
(-88.3220000013 0 -8.77137425345e-11)
(-88.3220000015 0 -1.1075728687e-10)
(-88.321999999 0 -4.89804890524e-11)
(-88.3219999981 0 2.15465138115e-10)
(-88.3220000001 0 -4.35482036266e-11)
(-88.3220000013 0 7.62411953661e-11)
(-88.3219999999 0 -3.27500965839e-11)
(-88.3219999993 0 -2.13643874333e-11)
(-88.3220000005 0 3.77668944343e-11)
(-88.322 0 -5.10292930882e-12)
(-88.3219999996 0 -1.15567658639e-11)
(-88.3220000001 0 -3.76361483958e-11)
(-88.322 0 -2.37583525352e-11)
(-88.3220000002 0 4.39583419046e-11)
(-88.3219999998 0 -1.84273352698e-10)
(-88.3220000001 0 4.56372594303e-11)
(-88.322 0 1.07687322678e-10)
(-88.3219999996 0 -1.51479977965e-10)
(-88.3220000002 0 -1.65686542699e-10)
(-88.322 0 1.0351200174e-10)
(-88.3219999998 0 5.62847937239e-10)
(-88.3220000005 0 5.62655552672e-10)
(-88.3220000003 0 -2.88333209123e-10)
(-88.3219999999 0 -3.41883676979e-10)
(-88.3219999998 0 -2.14575041565e-10)
(-88.3219999996 0 -4.52092780773e-10)
(-88.3219999998 0 1.63259804967e-10)
(-88.3219999992 0 -4.21599833748e-10)
(-88.3219999993 0 3.5218688666e-10)
(-88.3220000012 0 -1.68255285407e-10)
(-88.3220000004 0 1.37813003934e-10)
(-88.3220000003 0 -2.78374472502e-10)
(-88.3220000001 0 8.67859776837e-12)
(-88.322 0 -4.39736119236e-11)
(-88.322 0 -7.54773826803e-13)
(-88.322 0 -7.22625189595e-11)
(-88.322 0 8.5111608428e-11)
(-88.322 0 3.88036416205e-11)
(-88.322 0 -9.19463977206e-11)
(-88.3220000001 0 1.57549212026e-10)
(-88.322 0 1.56161964631e-10)
(-88.322 0 -4.67362973941e-10)
(-88.322 0 5.46826632892e-10)
(-88.322 0 5.37658686075e-10)
(-88.322 0 8.18981671422e-11)
(-88.322 0 1.20221381707e-10)
(-88.322 0 -3.06307826509e-11)
(-88.322 0 8.2722147842e-11)
(-88.322 0 -1.48204391071e-11)
(-88.322 0 2.92497273665e-12)
(-88.322 0 8.21603380206e-12)
(-88.322 0 -2.32920543146e-11)
(-88.322 0 1.49900359364e-11)
(-88.322 0 -1.12052435961e-11)
(-88.322 0 1.46839789991e-10)
(-88.322 0 -5.69951458184e-11)
(-88.322 0 -4.32492047178e-11)
(-88.322 0 7.41449550327e-11)
(-88.322 0 -2.64843187678e-11)
(-88.322 0 3.84170130725e-11)
(-88.322 0 -1.82282397236e-10)
(-88.322 0 4.46071161135e-11)
(-88.322 0 -8.14373486382e-11)
(-88.322 0 -3.56654966602e-11)
(-88.322 0 2.05586813752e-10)
(-88.3220000003 0 -1.50426017508e-10)
(-88.3219999999 0 1.57024891063e-10)
(-88.3219999997 0 -1.84992023684e-10)
(-88.3220000001 0 -7.25920404141e-10)
(-88.322 0 1.62079720419e-10)
(-88.322 0 3.03015126651e-10)
(-88.322 0 -2.20842252918e-11)
(-88.322 0 -8.00666881226e-11)
(-88.322 0 1.86861373306e-10)
(-88.322 0 -8.64808068955e-11)
(-88.322 0 -3.102588483e-11)
(-88.322 0 -2.27111685197e-11)
(-88.322 0 -5.80670142459e-11)
(-88.322 0 1.37764540864e-10)
(-88.3219999998 0 -1.36660078681e-11)
(-88.3220000003 0 1.91965826766e-10)
(-88.3220000003 0 -5.09994841683e-11)
(-88.3219999996 0 -7.28636645373e-11)
(-88.3219999989 0 -1.60035374891e-10)
(-88.321999999 0 6.7151969273e-11)
(-88.3220000018 0 1.2635914271e-10)
(-88.322000002 0 -2.42708752071e-10)
(-88.3219999996 0 -1.04063096681e-10)
(-88.322 0 -5.59597330875e-11)
(-88.3219999994 0 -1.06460267223e-10)
(-88.3219999998 0 4.77183335315e-11)
(-88.3219999993 0 5.78236400672e-11)
(-88.3219999992 0 -1.00296631506e-09)
(-88.3220000005 0 -8.2982986928e-10)
(-88.322 0 -2.34930743656e-10)
(-88.3219999996 0 1.24229034834e-10)
(-88.3220000001 0 1.21142422435e-10)
(-88.3219999999 0 -1.56273467771e-10)
(-88.322 0 -4.98843254538e-11)
(-88.3219999997 0 6.82880874606e-11)
(-88.3219999999 0 5.62291534211e-11)
(-88.3220000003 0 -1.24231467872e-10)
(-88.322 0 -1.36836345904e-10)
(-88.322 0 -3.48069795192e-11)
(-88.322 0 -6.40867567826e-11)
(-88.322 0 5.79587500437e-12)
(-88.3219999999 0 -2.56629799733e-11)
(-88.3220000002 0 -7.83385312475e-12)
(-88.3220000001 0 -2.34239325042e-11)
(-88.3219999998 0 -3.08145190418e-11)
(-88.322 0 -3.94057620225e-11)
(-88.322 0 -3.39372797522e-11)
(-88.322 0 -5.60703170138e-12)
(-88.322 0 4.78611555342e-11)
(-88.322 0 -1.67035663551e-10)
(-88.3219999999 0 -7.00437440701e-11)
(-88.3219999999 0 4.84732900437e-10)
(-88.322 0 3.39130427808e-10)
(-88.3220000001 0 -4.58467108557e-10)
(-88.3220000001 0 -3.48691318359e-10)
(-88.322 0 -1.14424052935e-10)
(-88.3219999998 0 6.62848354767e-11)
(-88.3220000002 0 -1.61019163717e-10)
(-88.3220000003 0 1.21805721713e-10)
(-88.322 0 -1.47654857918e-10)
(-88.3220000001 0 -4.01782613338e-10)
(-88.3219999997 0 -3.09780007969e-10)
(-88.3219999991 0 2.37061000381e-10)
(-88.3220000015 0 -4.16533527244e-10)
(-88.3220000016 0 -4.56801344193e-10)
(-88.3219999991 0 -4.06301421392e-10)
(-88.3219999999 0 4.37596604518e-10)
(-88.3219999994 0 3.34327118152e-10)
(-88.3219999991 0 -3.67473725705e-10)
(-88.3220000002 0 -2.44374601682e-10)
(-88.322 0 5.14111239485e-10)
(-88.322 0 1.12580207857e-10)
(-88.322 0 -3.36770079461e-10)
(-88.322 0 -5.48241308039e-10)
(-88.322 0 2.38727117128e-10)
(-88.3220000001 0 -2.38587957209e-10)
(-88.3219999999 0 -8.11610661443e-11)
(-88.3219999997 0 -5.07965166413e-10)
(-88.322 0 4.23903946217e-10)
(-88.3220000001 0 -1.19387786569e-10)
(-88.322 0 6.25177914295e-11)
(-88.3220000005 0 2.63804052737e-10)
(-88.3219999998 0 -3.91096064764e-10)
(-88.3219999993 0 -9.18377245249e-10)
(-88.3220000011 0 -1.09571276306e-09)
(-88.3220000007 0 -4.02324330676e-10)
(-88.3219999995 0 9.70898163435e-10)
(-88.3219999998 0 5.63688797641e-10)
(-88.3219999993 0 -7.47508730148e-11)
(-88.3219999994 0 -6.75464268637e-10)
(-88.3220000013 0 7.23314946693e-10)
(-88.3220000011 0 -2.86797593202e-11)
(-88.3219999996 0 -1.76526991927e-10)
(-88.3219999995 0 -2.62342459419e-11)
(-88.322 0 1.06468438092e-10)
(-88.3220000006 0 5.56237698986e-11)
(-88.3220000003 0 2.29396965585e-10)
(-88.3219999996 0 -2.20948460863e-10)
(-88.3219999998 0 1.72376198827e-10)
(-88.3220000004 0 -2.59721611092e-10)
(-88.3220000003 0 2.08417633525e-10)
(-88.3219999998 0 2.46851017716e-10)
(-88.322 0 -2.09712963936e-10)
(-88.3219999999 0 -4.07293050687e-10)
(-88.322 0 -1.38859529468e-10)
(-88.322 0 -4.56525549209e-10)
(-88.322 0 -4.43266645431e-10)
(-88.322 0 -1.58847700452e-10)
(-88.322 0 7.51517514979e-11)
(-88.322 0 3.50806407144e-11)
(-88.322 0 9.5588266812e-11)
(-88.3219999999 0 -3.39862540265e-10)
(-88.3220000003 0 -6.93512094753e-10)
(-88.3220000002 0 3.17280851453e-10)
(-88.3219999987 0 3.15125110899e-10)
(-88.3219999992 0 7.49755476e-10)
(-88.322000002 0 -4.57586563118e-10)
(-88.3220000013 0 -4.28109310183e-10)
(-88.3219999993 0 2.94805877946e-10)
(-88.3219999992 0 2.83616972535e-10)
(-88.3220000001 0 2.80956753114e-10)
(-88.322 0 1.04150260174e-10)
(-88.3220000001 0 3.0490084871e-10)
(-88.322000001 0 1.02692239601e-10)
(-88.3220000002 0 3.26999670019e-11)
(-88.3219999987 0 9.39611758716e-11)
(-88.3220000002 0 -1.32178478045e-10)
(-88.3220000013 0 -3.84662592249e-10)
(-88.3220000003 0 5.23941855989e-10)
(-88.321999998 0 7.62122269875e-10)
(-88.3219999982 0 4.75685811967e-10)
(-88.3220000016 0 7.22324492834e-10)
(-88.3220000011 0 -4.78098442131e-10)
(-88.3219999983 0 -3.39166852734e-11)
(-88.3219999993 0 2.08995193627e-11)
(-88.3220000017 0 -5.92164925123e-11)
(-88.3220000013 0 5.54780114731e-11)
(-88.3219999988 0 -9.04776183257e-11)
(-88.3219999994 0 4.17860646243e-11)
(-88.3220000006 0 -1.14068439135e-10)
(-88.3220000005 0 -2.86325212398e-10)
(-88.3219999989 0 2.29750481632e-10)
(-88.321999999 0 3.21626871166e-10)
(-88.3220000011 0 4.16547997743e-10)
(-88.3219999995 0 -3.33932721779e-10)
(-88.3220000004 0 -3.39208480456e-10)
(-88.3220000011 0 6.6639436006e-10)
(-88.3220000003 0 9.29666632266e-11)
(-88.3220000008 0 1.10637467049e-10)
(-88.321999998 0 3.4667458689e-10)
(-88.3219999977 0 5.3696141031e-10)
(-88.3220000021 0 6.28699240257e-10)
(-88.3220000017 0 -2.30302138321e-10)
(-88.3219999981 0 -3.64237658994e-10)
(-88.321999998 0 -1.8773101878e-10)
(-88.322000001 0 4.33309892883e-10)
(-88.3220000006 0 3.88141260713e-10)
(-88.3219999994 0 2.88757117792e-10)
(-88.322 0 -1.76941105121e-10)
(-88.3219999998 0 -2.08259952605e-10)
(-88.3220000004 0 1.27923413664e-10)
(-88.322 0 -2.51821787962e-11)
(-88.3219999999 0 -6.09550531893e-11)
(-88.3219999999 0 -1.06321173076e-10)
(-88.3219999993 0 1.17455351988e-10)
(-88.3220000008 0 9.57421087507e-11)
(-88.3220000013 0 3.63286969496e-11)
(-88.3219999998 0 -3.30382833185e-11)
(-88.322 0 -2.94388070455e-10)
(-88.3220000005 0 -3.00752672203e-11)
(-88.3219999996 0 -8.0486978122e-11)
(-88.3219999991 0 -9.9876267266e-11)
(-88.3219999995 0 7.21170911838e-11)
(-88.322 0 -1.00380458296e-10)
(-88.3220000007 0 -1.07150564426e-11)
(-88.3220000016 0 9.72010578512e-13)
(-88.3219999988 0 -6.76373137322e-11)
(-88.321999998 0 1.8926865793e-10)
(-88.321999999 0 5.39373960028e-12)
(-88.3220000015 0 -3.44356287623e-10)
(-88.3220000024 0 -2.25461885746e-10)
(-88.3219999987 0 3.23011686299e-10)
(-88.3219999986 0 4.49821443945e-10)
(-88.322 0 1.17489206333e-10)
(-88.3220000001 0 -4.72780866411e-11)
(-88.3220000001 0 1.65262339383e-10)
(-88.3220000003 0 -8.87433927936e-11)
(-88.3220000005 0 1.58549152164e-10)
(-88.3220000001 0 4.03774519912e-10)
(-88.322 0 3.0914623175e-10)
(-88.3219999999 0 -2.32524756332e-10)
(-88.3220000003 0 5.08794983542e-10)
(-88.3219999995 0 2.79806053777e-10)
(-88.3219999991 0 6.12074705562e-10)
(-88.322 0 -4.96421139787e-10)
(-88.3220000013 0 -3.32582482514e-10)
(-88.3220000006 0 5.12243049583e-10)
(-88.3219999993 0 2.14548169069e-10)
(-88.322 0 -5.1845380516e-10)
(-88.322 0 -1.05198704874e-10)
(-88.3220000001 0 3.2157546462e-10)
(-88.322 0 5.71819571022e-10)
(-88.322 0 -3.88003013514e-10)
(-88.3220000008 0 2.27229413753e-10)
(-88.3219999993 0 5.2100260447e-11)
(-88.3219999985 0 5.16690403963e-10)
(-88.3219999996 0 -4.49538335141e-10)
(-88.3220000015 0 2.48978798788e-11)
(-88.3220000016 0 1.39061258611e-10)
(-88.3219999985 0 -5.20774387453e-10)
(-88.321999999 0 1.11983246213e-10)
(-88.3220000004 0 7.38520456417e-10)
(-88.3220000005 0 7.1005791616e-10)
(-88.3219999999 0 4.34142583202e-10)
(-88.3219999991 0 -4.24166827042e-10)
(-88.3220000012 0 -5.82213068998e-10)
(-88.3220000012 0 4.93147142725e-10)
(-88.3219999995 0 4.65636875488e-10)
(-88.3219999997 0 -3.79343384076e-10)
(-88.322 0 -5.01868457929e-10)
(-88.3219999999 0 1.27059525487e-10)
(-88.322 0 -1.70014191996e-10)
(-88.322 0 -3.64672011367e-11)
(-88.322 0 1.11451247005e-10)
(-88.322 0 -1.94474318939e-10)
(-88.322 0 1.81468154617e-10)
(-88.322 0 -1.01349979121e-10)
(-88.322 0 1.52326160945e-10)
(-88.322 0 -2.10480884811e-10)
(-88.322 0 -1.26787778466e-10)
(-88.3220000002 0 -1.97364513411e-10)
(-88.3220000005 0 1.64153509686e-11)
(-88.322 0 3.38024764407e-10)
(-88.3219999996 0 1.72524970174e-10)
(-88.3220000001 0 -1.29862626566e-10)
(-88.3219999998 0 -2.68716681587e-10)
(-88.322 0 1.26921856126e-10)
(-88.3220000001 0 1.76594479778e-10)
(-88.3219999997 0 -2.08654143756e-10)
(-88.322 0 3.7793409107e-10)
(-88.322 0 6.88036032377e-10)
(-88.3220000001 0 -2.97834595408e-10)
(-88.3219999997 0 -3.25713215401e-10)
(-88.3219999997 0 -7.70367574091e-10)
(-88.3220000005 0 3.77841389522e-10)
(-88.322 0 3.93334721362e-10)
(-88.3219999998 0 -3.18685658197e-10)
(-88.3220000001 0 -2.88153980165e-10)
(-88.322 0 -3.19276479201e-10)
(-88.322 0 -2.05272886765e-10)
(-88.322 0 -2.1771579164e-10)
(-88.322 0 -1.06501323507e-10)
(-88.322 0 1.0581984404e-10)
(-88.322 0 1.15836785207e-10)
(-88.3219999997 0 -1.45231752724e-10)
(-88.3220000003 0 3.28834902487e-10)
(-88.3220000002 0 -2.9900934919e-10)
(-88.3219999996 0 -6.53325001627e-10)
(-88.322 0 -5.21589471658e-10)
(-88.3219999997 0 -1.19373536822e-10)
(-88.3220000001 0 -7.39704246141e-11)
(-88.3220000005 0 -4.5188622992e-10)
(-88.3219999999 0 2.31611904409e-10)
(-88.322 0 3.37966972011e-10)
(-88.322 0 -3.70368486418e-10)
(-88.3220000003 0 5.00383254722e-11)
(-88.3220000001 0 -4.99666773421e-10)
(-88.3219999997 0 -4.39514495399e-10)
(-88.322 0 1.22490005681e-10)
(-88.3219999999 0 -7.55234112058e-10)
(-88.322 0 -4.4971281616e-10)
(-88.3219999999 0 -4.56576430797e-10)
(-88.3220000006 0 2.20363082125e-10)
(-88.3220000006 0 2.92279844771e-10)
(-88.3219999987 0 -5.34567906844e-10)
(-88.3219999991 0 -1.03134142187e-10)
(-88.3220000014 0 -4.68920460363e-10)
(-88.3220000003 0 2.62190617333e-10)
(-88.3219999998 0 -4.44792336964e-10)
(-88.3220000003 0 -8.57523007515e-10)
(-88.3219999997 0 -2.01562599882e-10)
(-88.3219999999 0 8.10651614144e-11)
(-88.322 0 3.16229861765e-10)