/*--------------------------------*- C++ -*----------------------------------*\
  =========                 |
  \\      /  F ield         | OpenFOAM: The Open Source CFD Toolbox
   \\    /   O peration     | Website:  https://openfoam.org
    \\  /    A nd           | Version:  6
     \\/     M anipulation  |
\*---------------------------------------------------------------------------*/
FoamFile
{
    version     2.0;
    format      ascii;
    class       volVectorField;
    location    "3.1e-05";
    object      U;
}
// * * * * * * * * * * * * * * * * * * * * * * * * * * * * * * * * * * * * * //

dimensions      [0 1 -1 0 0 0 0];

internalField   nonuniform List<vector> 
8192
(
(-88.3220000002 0 -2.20689136828e-10)
(-88.3219999996 0 -2.74865817359e-11)
(-88.322 0 -4.72913815119e-11)
(-88.322 0 -5.54085140347e-11)
(-88.3219999999 0 -2.63867091306e-11)
(-88.322 0 5.67788213177e-12)
(-88.322 0 -1.58902236127e-12)
(-88.322 0 -4.99809167008e-12)
(-88.322 0 -6.16976163079e-11)
(-88.322 0 -2.76747002251e-10)
(-88.322 0 -2.30794692998e-10)
(-88.322 0 1.42000425484e-10)
(-88.322 0 2.87168219954e-10)
(-88.322 0 -2.0709447339e-10)
(-88.322 0 -3.90057400862e-10)
(-88.322 0 1.28838322127e-10)
(-88.322 0 -1.02599757577e-11)
(-88.322 0 2.22064898799e-10)
(-88.322 0 -2.76240933085e-10)
(-88.322 0 -1.87838016276e-10)
(-88.322 0 2.10081343511e-10)
(-88.322 0 2.20248588928e-10)
(-88.322 0 -1.13469923324e-10)
(-88.322 0 -1.74142173236e-10)
(-88.322 0 3.82992483803e-11)
(-88.322 0 2.74998862985e-11)
(-88.322 0 3.98253871467e-11)
(-88.322 0 3.33666238715e-11)
(-88.3220000001 0 3.51604355333e-11)
(-88.322 0 -1.8396829934e-11)
(-88.3219999999 0 5.17943372903e-11)
(-88.322 0 2.92630045474e-11)
(-88.3219999996 0 -3.0150575966e-12)
(-88.3220000004 0 2.30117563355e-10)
(-88.3220000009 0 -1.82691658643e-10)
(-88.3219999996 0 -2.32074150523e-10)
(-88.322 0 3.94515308659e-12)
(-88.3219999998 0 -2.4542421222e-10)
(-88.3219999995 0 1.09417370674e-10)
(-88.3220000002 0 2.19483915366e-11)
(-88.322 0 2.23918972192e-11)
(-88.322 0 -1.702375033e-12)
(-88.322 0 -1.17006931064e-11)
(-88.322 0 -5.60515365926e-12)
(-88.322 0 -2.81306413148e-11)
(-88.322 0 -1.1135292808e-11)
(-88.322 0 -5.97355525285e-12)
(-88.322 0 -1.49920444883e-12)
(-88.322 0 3.37629423227e-13)
(-88.322 0 -1.40563441355e-11)
(-88.322 0 -3.34293896595e-12)
(-88.322 0 -1.23298005193e-12)
(-88.3219999999 0 -3.02547130675e-11)
(-88.3219999999 0 7.30225411231e-11)
(-88.3220000004 0 5.73409874769e-11)
(-88.3220000002 0 -1.10327538066e-10)
(-88.3219999999 0 -2.52659957059e-11)
(-88.3219999999 0 -5.3921187386e-11)
(-88.322 0 -1.91107111085e-11)
(-88.3219999997 0 -5.26313411145e-11)
(-88.3219999994 0 1.267283666e-10)
(-88.3219999998 0 2.36317889347e-10)
(-88.3220000003 0 2.19856759279e-10)
(-88.3220000009 0 9.48540569771e-11)
(-88.322 0 4.78879729555e-11)
(-88.322 0 -1.01396065158e-11)
(-88.322 0 2.12746285184e-11)
(-88.322 0 1.169892365e-11)
(-88.322 0 2.21905912216e-11)
(-88.322 0 -9.84219997666e-12)
(-88.322 0 -2.25824426067e-13)
(-88.3220000001 0 1.16675824871e-13)
(-88.3220000005 0 -1.82149873931e-12)
(-88.3220000003 0 -1.30220180136e-11)
(-88.3219999992 0 -2.03578852972e-12)
(-88.321999999 0 -2.36998309022e-11)
(-88.3220000007 0 -6.45119559065e-12)
(-88.3220000013 0 -2.65658609308e-11)
(-88.3219999994 0 -7.49804727205e-11)
(-88.3219999993 0 4.64346413553e-11)
(-88.3219999998 0 -3.53369286792e-12)
(-88.3220000005 0 4.18343094836e-11)
(-88.3220000008 0 -6.08220476475e-11)
(-88.3219999991 0 -4.62564295642e-11)
(-88.3219999992 0 4.88409727045e-12)
(-88.3220000007 0 5.18297856058e-11)
(-88.3220000007 0 5.73678412492e-11)
(-88.3219999997 0 -3.83597630394e-11)
(-88.3219999996 0 1.87612366396e-10)
(-88.322 0 -1.48098979265e-10)
(-88.322 0 1.5246278378e-10)
(-88.322 0 1.41161009346e-10)
(-88.322 0 6.6635469864e-11)
(-88.322 0 4.36719475857e-11)
(-88.322 0 4.25054452753e-12)
(-88.322 0 -3.05496353104e-11)
(-88.322 0 -1.42704413134e-11)
(-88.322 0 -2.12406614464e-10)
(-88.322 0 1.41770013362e-10)
(-88.322 0 2.04957983731e-10)
(-88.322 0 -1.8802272401e-11)
(-88.322 0 1.24263881906e-10)
(-88.322 0 -1.0686769246e-10)
(-88.322 0 -2.75672017679e-11)
(-88.322 0 -5.78544617315e-13)
(-88.322 0 -2.85914387415e-12)
(-88.322 0 -1.48150938524e-11)
(-88.322 0 2.8301031459e-12)
(-88.322 0 -1.85359738008e-10)
(-88.322 0 -1.14044128374e-10)
(-88.322 0 -1.4798602358e-10)
(-88.322 0 -1.12693802446e-10)
(-88.322 0 -1.35162267685e-10)
(-88.322 0 -8.58354454182e-11)
(-88.322 0 1.40554606022e-10)
(-88.322 0 1.20646136138e-11)
(-88.322 0 6.31099178133e-12)
(-88.322 0 9.68180723808e-12)
(-88.322 0 -1.12330822889e-10)
(-88.322 0 2.49326975509e-10)
(-88.322 0 -5.93339962792e-11)
(-88.322 0 -2.09972164612e-10)
(-88.322 0 -2.86491716702e-10)
(-88.322 0 1.89855812713e-10)
(-88.322 0 6.86673458295e-11)
(-88.322 0 -5.12979856629e-10)
(-88.322 0 -4.71666420184e-10)
(-88.322 0 -1.96677742011e-10)
(-88.3219999999 0 1.38407726472e-11)
(-88.3219999997 0 6.93667394791e-12)
(-88.322 0 -2.66778249485e-12)
(-88.322 0 2.95843376575e-11)
(-88.322 0 7.27538075889e-12)
(-88.322 0 1.12360585796e-11)
(-88.322 0 2.94071661806e-12)
(-88.322 0 8.91372621401e-12)
(-88.322 0 4.70551423689e-11)
(-88.322 0 2.65615942212e-10)
(-88.322 0 2.22831604436e-10)
(-88.322 0 -1.36829627333e-10)
(-88.322 0 -2.88228543678e-10)
(-88.3220000001 0 1.83853812917e-10)
(-88.3219999998 0 3.66360010784e-10)
(-88.3219999998 0 -1.28428277473e-10)
(-88.322 0 8.54021225084e-12)
(-88.3220000001 0 -2.0369661343e-10)
(-88.3220000002 0 2.70461048585e-10)
(-88.3219999999 0 1.76686102433e-10)
(-88.3219999998 0 -2.09914139518e-10)
(-88.3219999999 0 -2.03855601895e-10)
(-88.3220000002 0 1.3517117914e-10)
(-88.3219999998 0 1.74670035557e-10)
(-88.3220000002 0 -1.56366213074e-11)
(-88.322 0 -2.70417937266e-11)
(-88.3219999994 0 -1.34311626484e-11)
(-88.3220000002 0 -1.19989050047e-11)
(-88.3220000003 0 8.58698805187e-11)
(-88.3220000001 0 -6.20809161511e-11)
(-88.3220000001 0 7.70116829639e-11)
(-88.3220000001 0 -4.93700971219e-12)
(-88.322 0 -1.13982836584e-10)
(-88.322 0 1.42487064033e-10)
(-88.322 0 2.22020876547e-10)
(-88.322 0 -4.02960772514e-11)
(-88.3220000002 0 -2.142789166e-10)
(-88.322 0 2.76075676858e-10)
(-88.3219999998 0 2.50609420832e-10)
(-88.322 0 -2.59714736888e-10)
(-88.322 0 -1.91111582291e-10)
(-88.322 0 -1.60813736546e-11)
(-88.322 0 -9.09389013767e-11)
(-88.3220000004 0 -3.49470750251e-11)
(-88.3220000002 0 -8.05132055979e-11)
(-88.3219999999 0 1.56382212047e-11)
(-88.322 0 -1.82225731533e-10)
(-88.3219999999 0 -3.41181231358e-10)
(-88.3219999999 0 1.20259655884e-10)
(-88.3219999995 0 -3.4967388442e-12)
(-88.3219999998 0 -7.917974667e-11)
(-88.3220000003 0 6.83956667454e-11)
(-88.3219999999 0 -1.9306566832e-10)
(-88.3220000001 0 1.46223854185e-10)
(-88.3219999999 0 -2.4404878344e-11)
(-88.3220000001 0 -1.64099943378e-10)
(-88.3220000008 0 -1.29325343736e-10)
(-88.3220000004 0 -1.07000755306e-10)
(-88.3219999992 0 -7.81810409634e-11)
(-88.321999999 0 -6.12868321618e-11)
(-88.3220000008 0 -6.72930209723e-11)
(-88.3220000009 0 2.89141392401e-11)
(-88.3219999997 0 -1.26362651137e-12)
(-88.3219999999 0 1.06548743452e-11)
(-88.322 0 1.99337713464e-10)
(-88.322 0 5.14187211507e-11)
(-88.322 0 2.23682123784e-11)
(-88.322 0 3.1764876761e-11)
(-88.322 0 -7.25802399506e-12)
(-88.322 0 -6.5857900206e-13)
(-88.322 0 1.3917559561e-12)
(-88.322 0 1.08927653901e-11)
(-88.322 0 5.74865813302e-12)
(-88.322 0 2.87001975071e-11)
(-88.322 0 9.96983984511e-12)
(-88.322 0 9.05761977059e-12)
(-88.322 0 1.14096038233e-11)
(-88.322 0 5.01939457123e-11)
(-88.322 0 8.70890915551e-11)
(-88.322 0 -5.0162468394e-11)
(-88.322 0 2.51102840995e-12)
(-88.322 0 -5.69986109609e-11)
(-88.322 0 5.90957680619e-11)
(-88.322 0 1.16780710781e-10)
(-88.322 0 -1.58684710786e-10)
(-88.322 0 -3.57367976641e-10)
(-88.322 0 1.06596934378e-10)
(-88.322 0 1.54846438423e-10)
(-88.322 0 -7.96065243315e-11)
(-88.322 0 2.35311090341e-10)
(-88.322 0 -1.08605773723e-10)
(-88.3219999998 0 -7.79005976827e-11)
(-88.3220000001 0 -8.00757620798e-11)
(-88.322 0 -3.93471234295e-11)
(-88.3219999999 0 7.45200253271e-12)
(-88.3220000004 0 -2.66414335188e-11)
(-88.3219999997 0 -1.67294866579e-11)
(-88.3219999994 0 -8.050620907e-12)
(-88.3220000004 0 2.25618890593e-11)
(-88.3220000008 0 2.5071894092e-11)
(-88.3219999994 0 -9.00082421636e-12)
(-88.3219999991 0 1.20127976705e-10)
(-88.322000001 0 4.55450544218e-12)
(-88.3220000008 0 2.07069316432e-12)
(-88.3219999995 0 -1.03194267669e-11)
(-88.3219999998 0 -6.18560624091e-12)
(-88.322 0 1.19066271667e-11)
(-88.322 0 6.35499756668e-13)
(-88.3219999999 0 2.07332058091e-10)
(-88.3220000002 0 1.14878643856e-10)
(-88.3220000007 0 1.43997284936e-10)
(-88.3219999994 0 9.55142434041e-11)
(-88.3219999994 0 1.46124230068e-10)
(-88.3220000004 0 1.05261976517e-10)
(-88.3219999999 0 -1.45504944197e-10)
(-88.3220000002 0 4.06895407661e-11)
(-88.3219999998 0 -6.45204430874e-11)
(-88.3219999997 0 1.73736882826e-10)
(-88.3220000006 0 2.44287706737e-10)
(-88.3220000002 0 -3.37927290643e-10)
(-88.3219999999 0 -2.2732815545e-11)
(-88.3219999999 0 2.58744373348e-10)
(-88.3219999999 0 1.53804932099e-10)
(-88.3219999999 0 -1.14928010327e-10)
(-88.3219999998 0 -3.42957357959e-10)
(-88.3219999999 0 4.86434849032e-10)
(-88.322 0 3.21701311039e-10)
(-88.322 0 1.8730079843e-10)
(-88.3220000001 0 -9.54645638819e-11)
(-88.3220000001 0 -2.05241340381e-11)
(-88.322 0 1.40969465987e-11)
(-88.322 0 8.60117847188e-12)
(-88.322 0 -1.47657910831e-11)
(-88.322 0 5.88459623958e-12)
(-88.322 0 8.6156293939e-12)
(-88.322 0 1.64142531622e-11)
(-88.322 0 1.09677142224e-11)
(-88.322 0 3.21150622211e-12)
(-88.322 0 4.08011759218e-12)
(-88.322 0 -3.40609029873e-11)
(-88.322 0 -4.29528323767e-11)
(-88.322 0 -9.122499685e-12)
(-88.322 0 7.25884902003e-12)
(-88.322 0 7.5198039087e-12)
(-88.322 0 1.29792265242e-11)
(-88.322 0 1.06144459278e-11)
(-88.3219999999 0 -5.16609311861e-13)
(-88.3220000003 0 8.55150892024e-12)
(-88.3220000007 0 4.47482824206e-12)
(-88.3219999994 0 2.2000847994e-12)
(-88.3219999992 0 2.39908434038e-12)
(-88.3220000001 0 -2.26075416953e-11)
(-88.3220000001 0 8.4251035782e-12)
(-88.3220000001 0 8.14895883947e-12)
(-88.322 0 7.44718607309e-11)
(-88.3220000001 0 1.05680530651e-10)
(-88.3220000002 0 1.26372896106e-10)
(-88.3219999999 0 1.81609013985e-11)
(-88.322 0 1.01381768552e-10)
(-88.3220000001 0 1.33153293972e-10)
(-88.322 0 -2.06993711099e-11)
(-88.322 0 -1.88499709917e-10)
(-88.322 0 -3.27412276879e-10)
(-88.322 0 -8.75630046017e-11)
(-88.322 0 2.58609696867e-10)
(-88.322 0 -3.21007301129e-10)
(-88.322 0 -2.46296757137e-10)
(-88.322 0 2.26065776827e-10)
(-88.322 0 1.52815124957e-10)
(-88.322 0 1.68033363665e-11)
(-88.322 0 7.83114199373e-11)
(-88.322 0 3.16285659442e-11)
(-88.322 0 6.22051319025e-11)
(-88.322 0 -1.51703946932e-11)
(-88.322 0 1.76673781163e-10)
(-88.322 0 3.22504478771e-10)
(-88.3219999999 0 -1.12633292304e-10)
(-88.3220000001 0 2.54226503324e-12)
(-88.3219999999 0 6.40662947897e-11)
(-88.3220000001 0 -3.42112045075e-11)
(-88.3219999997 0 1.51153405739e-10)
(-88.3219999995 0 -1.37967814576e-10)
(-88.3220000009 0 -1.25587394898e-11)
(-88.3220000006 0 -1.24994643441e-10)
(-88.3219999996 0 -5.25575842778e-11)
(-88.322 0 8.11561294501e-11)
(-88.3219999999 0 -2.35829733987e-10)
(-88.322 0 3.03833444526e-10)
(-88.3219999996 0 1.87433942891e-10)
(-88.3219999996 0 1.5582638168e-10)
(-88.3220000002 0 7.41704715268e-11)
(-88.3220000001 0 4.8688584819e-11)
(-88.3220000001 0 -1.64574633196e-11)
(-88.3219999998 0 -5.05992764886e-11)
(-88.322 0 9.81539118182e-11)
(-88.322 0 2.65142085058e-10)
(-88.322 0 -1.71675340683e-10)
(-88.322 0 2.47740522882e-10)
(-88.322 0 2.69086840687e-10)
(-88.322 0 -8.81121882855e-11)
(-88.322 0 -2.83495325389e-11)
(-88.322 0 2.81907168325e-11)
(-88.322 0 -2.43892764519e-12)
(-88.322 0 2.00032422746e-11)
(-88.322 0 5.0239866425e-11)
(-88.322 0 -8.55106926135e-11)
(-88.322 0 2.08950636539e-10)
(-88.322 0 2.10046500133e-10)
(-88.322 0 1.54889706974e-10)
(-88.322 0 7.42015945774e-11)
(-88.322 0 -8.52874634217e-11)
(-88.322 0 -8.43574848918e-11)
(-88.322 0 3.53446901524e-10)
(-88.322 0 5.0372928819e-10)
(-88.322 0 -2.06920004886e-10)
(-88.322 0 -2.76040643407e-10)
(-88.322 0 -1.56097424212e-10)
(-88.3219999999 0 1.54471460435e-10)
(-88.3219999998 0 8.26502036513e-11)
(-88.3219999997 0 -5.99990635079e-11)
(-88.3220000003 0 1.64298572185e-10)
(-88.322 0 1.14230351601e-10)
(-88.3219999997 0 6.03025311765e-11)
(-88.3220000007 0 -1.87745555706e-10)
(-88.3220000003 0 4.41790368358e-11)
(-88.3219999999 0 1.54544333438e-11)
(-88.3220000002 0 1.06183599034e-11)
(-88.3219999997 0 -4.95451768669e-13)
(-88.3219999999 0 4.51933593015e-12)
(-88.3220000001 0 7.7734875121e-12)
(-88.322 0 -5.34122132248e-12)
(-88.322 0 1.83817754866e-11)
(-88.322 0 1.07009381465e-11)
(-88.322 0 -7.05462965298e-12)
(-88.322 0 2.00537806054e-12)
(-88.322 0 1.59344190936e-12)
(-88.322 0 5.75604619019e-13)
(-88.322 0 -3.25862749294e-13)
(-88.322 0 2.70554752338e-12)
(-88.322 0 2.86901810943e-11)
(-88.322 0 -1.90637165837e-11)
(-88.322 0 -1.80119246418e-11)
(-88.322 0 1.27197877883e-11)
(-88.3220000001 0 -5.0571272499e-11)
(-88.322 0 1.14955564731e-10)
(-88.322 0 -2.32085018966e-10)
(-88.3220000006 0 -1.83834522125e-10)
(-88.3220000002 0 2.05250434005e-10)
(-88.3219999995 0 1.19729393293e-10)
(-88.3220000003 0 1.21196132709e-11)
(-88.3219999995 0 1.45385498874e-10)
(-88.3219999991 0 -2.41679604937e-11)
(-88.3220000001 0 1.50423925025e-10)
(-88.3220000001 0 -1.90915734274e-10)
(-88.3220000002 0 -4.81744518962e-11)
(-88.3220000003 0 -7.88085931343e-11)
(-88.3220000001 0 1.14060578302e-10)
(-88.3219999998 0 1.49386183819e-11)
(-88.3219999994 0 -1.41139485303e-11)
(-88.3220000006 0 -1.09630555789e-13)
(-88.322 0 1.50398296934e-12)
(-88.3219999991 0 -1.00758808648e-13)
(-88.3220000007 0 -1.12410827822e-11)
(-88.3220000006 0 -4.4296254742e-12)
(-88.3219999998 0 -3.98644150242e-12)
(-88.322 0 -9.71372799789e-11)
(-88.322 0 1.77502566166e-10)
(-88.3219999999 0 -2.72254519528e-10)
(-88.3220000002 0 -3.2967314225e-10)
(-88.3219999997 0 -6.29586276369e-11)
(-88.3219999994 0 -7.25278354337e-11)
(-88.3220000001 0 -3.99438014708e-11)
(-88.3220000003 0 -9.23198335849e-12)
(-88.3220000005 0 -1.13597718637e-11)
(-88.3220000002 0 1.92402493436e-12)
(-88.3219999994 0 -1.5059844641e-12)
(-88.3219999996 0 -9.85261224715e-14)
(-88.3220000005 0 4.33300891567e-12)
(-88.3220000008 0 -3.08875759999e-12)
(-88.322 0 1.82949097107e-11)
(-88.3219999992 0 -3.33802604013e-11)
(-88.3219999996 0 4.78419256212e-12)
(-88.3220000005 0 -8.31386150439e-11)
(-88.3219999999 0 -9.91469518766e-11)
(-88.3219999998 0 -2.1894369696e-10)
(-88.3220000001 0 4.14718939317e-11)
(-88.3220000007 0 -1.78929671449e-10)
(-88.3220000002 0 -1.89610280653e-10)
(-88.3219999995 0 2.99855691662e-10)
(-88.322 0 9.77919804792e-11)
(-88.322 0 -1.55696776167e-10)
(-88.322 0 -4.39524736699e-11)
(-88.322 0 -9.34772682423e-11)
(-88.322 0 3.16155664187e-10)
(-88.322 0 1.48613872754e-11)
(-88.322 0 -1.16646652222e-10)
(-88.322 0 9.46646094901e-12)
(-88.322 0 3.26595401198e-12)
(-88.322 0 3.88756318236e-13)
(-88.322 0 7.6084274733e-12)
(-88.322 0 2.12524421405e-11)
(-88.322 0 9.45023661852e-13)
(-88.322 0 -5.43962258089e-14)
(-88.322 0 -5.11237145986e-13)
(-88.322 0 1.2215707508e-12)
(-88.322 0 1.20928702484e-12)
(-88.322 0 1.30182868645e-11)
(-88.322 0 -1.44795441169e-11)
(-88.322 0 2.50642426629e-11)
(-88.322 0 -3.20870095845e-11)
(-88.322 0 2.26770256781e-11)
(-88.322 0 2.35225216515e-10)
(-88.322 0 1.13860172177e-10)
(-88.322 0 9.81730592099e-12)
(-88.322 0 3.0000197382e-10)
(-88.322 0 -2.10633581425e-10)
(-88.322 0 -1.01076793105e-10)
(-88.322 0 6.50993150612e-11)
(-88.322 0 7.56509693249e-11)
(-88.322 0 -4.01061998026e-11)
(-88.322 0 3.94864238015e-11)
(-88.322 0 6.14647319339e-11)
(-88.322 0 -9.6632708711e-11)
(-88.322 0 -2.54952408805e-10)
(-88.322 0 1.86313107896e-10)
(-88.322 0 -2.45244871195e-10)
(-88.322 0 -2.69457250362e-10)
(-88.322 0 8.69585848943e-11)
(-88.3220000002 0 2.8492993729e-11)
(-88.3219999996 0 -3.9357754565e-11)
(-88.3220000004 0 8.38514491292e-12)
(-88.3220000011 0 -1.48190752001e-11)
(-88.3219999996 0 -3.53951011256e-11)
(-88.3219999994 0 6.9632628145e-11)
(-88.3219999999 0 -2.10692145777e-10)
(-88.3219999999 0 -1.9477132087e-10)
(-88.3219999999 0 -1.47000698559e-10)
(-88.322 0 -6.39820266004e-11)
(-88.322 0 8.85391844357e-11)
(-88.322 0 1.5488013309e-11)
(-88.322 0 -1.91070552072e-10)
(-88.322 0 -2.06127386991e-10)
(-88.322 0 4.2884416184e-11)
(-88.322 0 1.64914835912e-10)
(-88.322 0 5.08201166083e-11)
(-88.322 0 -2.32004527374e-10)
(-88.322 0 -1.32033909263e-10)
(-88.322 0 -9.98244085941e-12)
(-88.322 0 -1.72849049541e-10)
(-88.322 0 -1.10158312159e-10)
(-88.3220000001 0 -1.03096171655e-10)
(-88.3219999997 0 2.14555149505e-10)
(-88.3219999998 0 -1.74868031198e-11)
(-88.3220000009 0 -9.07938225054e-12)
(-88.3220000005 0 -2.73143970118e-11)
(-88.3219999995 0 -7.51489384338e-12)
(-88.3219999991 0 3.05574171552e-11)
(-88.3219999999 0 -6.33592573328e-12)
(-88.3220000008 0 8.22695164499e-12)
(-88.3220000001 0 -1.5873968419e-11)
(-88.3219999997 0 -4.99329141362e-12)
(-88.322 0 1.53303079236e-11)
(-88.322 0 1.81581982374e-12)
(-88.322 0 -4.12458425485e-12)
(-88.322 0 -2.22043178003e-11)
(-88.322 0 -6.14611202855e-12)
(-88.322 0 1.17088534954e-12)
(-88.322 0 -1.42775898988e-11)
(-88.322 0 6.31828800178e-12)
(-88.322 0 4.32333350313e-12)
(-88.322 0 -1.14728838404e-11)
(-88.322 0 6.09276816123e-12)
(-88.322 0 -2.87530581025e-11)
(-88.322 0 2.1106960599e-10)
(-88.3220000001 0 1.77300257398e-10)
(-88.322 0 -2.51762071699e-10)
(-88.322 0 -1.50256382101e-10)
(-88.322 0 -2.14027939074e-11)
(-88.3219999999 0 -1.93681079735e-10)
(-88.3219999999 0 4.93130694353e-11)
(-88.3219999996 0 -1.76718362528e-10)
(-88.3219999998 0 1.90974900928e-10)
(-88.3220000005 0 8.08524664403e-12)
(-88.3220000002 0 2.51748451573e-11)
(-88.322 0 -7.18812191233e-11)
(-88.3220000001 0 -2.94613525746e-11)
(-88.322 0 -9.95774186268e-12)
(-88.322 0 -1.38920784467e-11)
(-88.322 0 2.78327281681e-12)
(-88.322 0 1.25221852758e-12)
(-88.322 0 -7.32785989316e-13)
(-88.322 0 -1.23016701601e-11)
(-88.322 0 6.20063283614e-13)
(-88.322 0 8.30918284689e-11)
(-88.322 0 -1.85596574089e-10)
(-88.322 0 3.02662310295e-10)
(-88.322 0 3.8220459851e-10)
(-88.322 0 6.8096177037e-11)
(-88.322 0 6.6576490553e-11)
(-88.322 0 3.10800122264e-11)
(-88.322 0 -2.67317884314e-12)
(-88.322 0 5.60784835189e-12)
(-88.322 0 2.00186031894e-12)
(-88.322 0 -4.07863249078e-13)
(-88.322 0 -6.04074614048e-12)
(-88.322 0 3.21937877444e-12)
(-88.322 0 8.42855310093e-12)
(-88.322 0 7.1848467835e-13)
(-88.322 0 9.24281472812e-12)
(-88.322 0 -1.30440072625e-11)
(-88.322 0 3.21144487217e-12)
(-88.322 0 5.22477245475e-12)
(-88.322 0 -3.44998426159e-12)
(-88.322 0 3.37725804736e-12)
(-88.322 0 1.46405291835e-11)
(-88.322 0 3.43870386121e-11)
(-88.322 0 -1.20849830832e-10)
(-88.322 0 1.76374184281e-10)
(-88.322 0 1.00376810045e-10)
(-88.322 0 -1.24652283486e-11)
(-88.322 0 7.44979101793e-13)
(-88.322 0 -4.40074826235e-10)
(-88.322 0 2.41363620752e-11)
(-88.322 0 1.42151829139e-10)
(-88.322 0 1.13758596624e-11)
(-88.322 0 -3.24956736761e-12)
(-88.322 0 1.19986181091e-11)
(-88.322 0 -1.55023614792e-11)
(-88.322 0 -1.68864807792e-11)
(-88.322 0 -5.68114779287e-12)
(-88.322 0 7.29081949023e-12)
(-88.322 0 9.42600696765e-12)
(-88.322 0 1.30905847583e-11)
(-88.322 0 1.4952108594e-11)
(-88.322 0 -4.03651575666e-12)
(-88.322 0 -1.22232972108e-12)
(-88.3219999996 0 -1.20920616901e-11)
(-88.3219999996 0 4.47575178449e-11)
(-88.322000001 0 4.55661229511e-11)
(-88.3220000007 0 -1.18040966621e-10)
(-88.3219999995 0 -6.14561479293e-11)
(-88.3220000001 0 -7.48933797993e-11)
(-88.3219999999 0 -1.7866507499e-11)
(-88.3219999999 0 -2.2579109009e-11)
(-88.3219999997 0 7.12063581868e-11)
(-88.3219999996 0 -4.43402705014e-10)
(-88.3220000003 0 -2.80036329555e-10)
(-88.322 0 -1.0579858241e-10)
(-88.3219999999 0 -3.94897279037e-13)
(-88.3219999999 0 5.91039709818e-11)
(-88.322 0 -2.07862089396e-11)
(-88.322 0 -6.87582920351e-12)
(-88.322 0 1.00586022939e-11)
(-88.322 0 4.6047174515e-12)
(-88.322 0 -1.67764300892e-11)
(-88.322 0 -3.39494335329e-11)
(-88.322 0 -1.59286898372e-11)
(-88.322 0 -1.66917107144e-11)
(-88.322 0 -4.49526624078e-12)
(-88.322 0 -9.51780125148e-12)
(-88.322 0 -6.11981802746e-12)
(-88.322 0 -8.69855400068e-13)
(-88.322 0 -4.9256018225e-12)
(-88.322 0 -5.47083906784e-12)
(-88.322 0 -7.90692259755e-12)
(-88.322 0 -5.51987140814e-12)
(-88.322 0 1.29104246361e-11)
(-88.322 0 -4.05495293811e-11)
(-88.322 0 -3.83410742668e-11)
(-88.322 0 1.338230301e-10)
(-88.322 0 1.27481118514e-10)
(-88.322 0 -1.90821593449e-10)
(-88.322 0 -1.97223579331e-10)
(-88.322 0 -9.48690362425e-11)
(-88.322 0 1.08498224078e-11)
(-88.322 0 -5.52767563809e-11)
(-88.322 0 2.94183205784e-11)
(-88.322 0 -8.3893350574e-11)
(-88.322 0 -2.05522248774e-10)
(-88.322 0 -1.6016873884e-10)
(-88.3219999995 0 -1.3261476523e-12)
(-88.3220000004 0 -2.03241462268e-10)
(-88.3220000008 0 -2.57335438562e-10)
(-88.3219999997 0 -2.87093438235e-10)
(-88.322 0 2.28509014399e-10)
(-88.3219999998 0 2.67544963215e-10)
(-88.3219999996 0 -2.41542839924e-10)
(-88.3220000001 0 -2.48270481828e-10)
(-88.322 0 1.33147866949e-10)
(-88.322 0 3.48583106003e-11)
(-88.322 0 -2.280135185e-10)
(-88.322 0 -2.34493550821e-10)
(-88.322 0 2.170200708e-10)
(-88.322 0 -1.38470102817e-10)
(-88.322 0 4.63982807888e-11)
(-88.322 0 -2.94105963857e-10)
(-88.322 0 2.91182900308e-10)
(-88.322 0 -1.5215173563e-11)
(-88.322 0 1.42056637744e-11)
(-88.3220000001 0 3.48449322672e-11)
(-88.3219999999 0 -1.22718126873e-10)
(-88.3219999999 0 -3.28786593173e-10)
(-88.3220000004 0 -3.17783687327e-10)
(-88.3220000002 0 -1.09580844459e-11)
(-88.3219999999 0 3.39827903989e-10)
(-88.3219999999 0 3.03673928658e-10)
(-88.3219999998 0 -9.24608746515e-11)
(-88.3219999997 0 -2.21597147845e-10)
(-88.3220000004 0 2.16550846414e-10)
(-88.3220000005 0 -3.05456570679e-11)
(-88.3219999998 0 -8.50772752323e-11)
(-88.3219999999 0 2.64754640907e-11)
(-88.322 0 5.39446840305e-11)
(-88.3220000001 0 3.17336603682e-11)
(-88.3220000001 0 1.64189040899e-11)
(-88.322 0 -3.53888874681e-11)
(-88.322 0 1.2438466319e-11)
(-88.322 0 -4.17736017416e-11)
(-88.322 0 2.1999467244e-11)
(-88.322 0 2.84973237927e-11)
(-88.322 0 -4.65990735923e-11)
(-88.322 0 -1.69669063074e-10)
(-88.322 0 -1.03414396901e-10)
(-88.322 0 -1.88625314605e-10)
(-88.322 0 -2.23114184144e-10)
(-88.322 0 -1.60776307719e-10)
(-88.322 0 3.74241418205e-11)
(-88.322 0 2.80303610733e-11)
(-88.322 0 2.99835020119e-11)
(-88.322 0 -1.0404346423e-10)
(-88.3220000001 0 -2.00141510844e-10)
(-88.3220000001 0 1.20363479179e-10)
(-88.3219999996 0 1.98532130653e-10)
(-88.3219999997 0 2.93180541501e-10)
(-88.3220000007 0 -1.61047761351e-10)
(-88.3220000006 0 -8.19191157004e-11)
(-88.3219999998 0 8.33253031949e-11)
(-88.3219999996 0 7.31810192166e-11)
(-88.3219999999 0 7.45760883518e-11)
(-88.322 0 3.45985316168e-11)
(-88.3220000001 0 3.22958267156e-11)
(-88.3220000004 0 2.86549151349e-11)
(-88.3220000001 0 -3.15002222451e-11)
(-88.3219999996 0 1.49165682535e-11)
(-88.3220000001 0 -2.20451976966e-11)
(-88.3220000005 0 -2.52097857802e-10)
(-88.3220000002 0 1.80856525632e-10)
(-88.321999999 0 2.45363220217e-10)
(-88.3219999988 0 1.39601680827e-10)
(-88.3220000009 0 3.1056599019e-10)
(-88.322000001 0 -1.04785678162e-10)
(-88.3219999993 0 1.46851841303e-11)
(-88.3219999994 0 3.43480805531e-12)
(-88.3220000007 0 -1.1428739265e-12)
(-88.3220000005 0 5.54721466258e-12)
(-88.3219999991 0 -1.31313059695e-11)
(-88.3219999998 0 1.27834196266e-11)
(-88.3220000003 0 -1.6644304618e-11)
(-88.3220000003 0 -5.67949445902e-11)
(-88.3219999995 0 7.42872499152e-11)
(-88.3219999994 0 6.06410507385e-11)
(-88.3220000006 0 1.23640759782e-10)
(-88.3219999999 0 -1.58866519452e-10)
(-88.3220000002 0 -1.81289315964e-10)
(-88.3220000003 0 1.38242032061e-10)
(-88.322 0 -2.20330722384e-11)
(-88.3220000003 0 1.90745623498e-11)
(-88.3219999994 0 1.45054155938e-10)
(-88.3219999989 0 2.0973499421e-10)
(-88.3220000009 0 1.98648130594e-10)
(-88.3220000009 0 -4.6799012766e-11)
(-88.3219999993 0 -3.21781013551e-11)
(-88.3219999993 0 -1.30320892273e-10)
(-88.3220000002 0 1.97427597899e-10)
(-88.3220000002 0 1.31195268656e-10)
(-88.3219999998 0 8.87537487076e-11)
(-88.322 0 -5.47066487157e-11)
(-88.322 0 -8.08365763352e-11)
(-88.322 0 1.54786533029e-11)
(-88.322 0 -1.51595692515e-11)
(-88.322 0 -2.34699682951e-12)
(-88.322 0 -9.5070725395e-12)
(-88.3219999999 0 4.70669958925e-12)
(-88.3220000001 0 1.79194497689e-11)
(-88.3220000004 0 9.43063926453e-12)
(-88.3220000001 0 -2.54159874654e-12)
(-88.322 0 -3.10042336645e-11)
(-88.3220000002 0 -4.55647325093e-12)
(-88.322 0 -2.54778729946e-11)
(-88.3219999995 0 -1.30899975114e-11)
(-88.3219999996 0 -1.50410066337e-11)
(-88.322 0 -7.15343109742e-12)
(-88.3220000002 0 -2.08952147987e-12)
(-88.3220000005 0 4.56642963114e-12)
(-88.3219999996 0 -1.97479196304e-11)
(-88.3219999992 0 4.40005400309e-11)
(-88.3219999996 0 3.58763154738e-11)
(-88.3220000007 0 -1.20712289252e-10)
(-88.3220000008 0 -1.24355499574e-10)
(-88.3219999996 0 1.80167609179e-10)
(-88.3219999997 0 1.96436933363e-10)
(-88.322 0 8.99322657198e-11)
(-88.322 0 -8.6215562498e-12)
(-88.322 0 5.67305820101e-11)
(-88.322 0 -2.20697803919e-11)
(-88.3220000001 0 8.6310424373e-11)
(-88.322 0 2.06131698235e-10)
(-88.322 0 1.5999218265e-10)
(-88.322 0 -1.84819697253e-12)
(-88.322 0 2.0009301381e-10)
(-88.3219999999 0 2.62950649754e-10)
(-88.3219999998 0 3.04619916888e-10)
(-88.3219999999 0 -2.28703717656e-10)
(-88.3220000003 0 -2.52554296183e-10)
(-88.3220000002 0 2.65100395609e-10)
(-88.3219999999 0 2.52980528753e-10)
(-88.322 0 -1.26130610324e-10)
(-88.322 0 -3.31183367105e-11)
(-88.322 0 2.24087361594e-10)
(-88.322 0 2.30463992449e-10)
(-88.322 0 -2.24338919215e-10)
(-88.3220000001 0 1.34160802266e-10)
(-88.3219999999 0 -4.9998088568e-11)
(-88.3219999997 0 2.9019307971e-10)
(-88.3219999999 0 -2.94118007358e-10)
(-88.3220000005 0 1.77444022985e-11)
(-88.3220000006 0 -6.23810250046e-12)
(-88.3219999995 0 -9.43423399466e-11)
(-88.3219999996 0 3.19597042238e-11)
(-88.3220000001 0 3.02453656607e-10)
(-88.3220000001 0 2.57471113391e-10)
(-88.3219999999 0 2.60675940279e-11)
(-88.3219999998 0 -1.57571034538e-10)
(-88.3220000004 0 -3.13568016665e-10)
(-88.3220000002 0 2.57267688468e-10)
(-88.3219999999 0 1.61749913114e-10)
(-88.322 0 -5.48125864011e-11)
(-88.322 0 -1.72595869911e-10)
(-88.322 0 4.16667197948e-11)
(-88.322 0 -5.61906898132e-11)
(-88.322 0 2.25486758479e-12)
(-88.322 0 1.56839293568e-11)
(-88.322 0 -8.27935315088e-12)
(-88.322 0 3.8094988176e-11)
(-88.322 0 -8.939700198e-12)
(-88.322 0 3.77445060344e-11)
(-88.322 0 -2.88301937967e-11)
(-88.322 0 -3.85729699846e-11)
(-88.322 0 -4.44078345698e-11)
(-88.322 0 -4.70205665963e-12)
(-88.322 0 1.11129224461e-10)
(-88.322 0 5.02711339115e-11)
(-88.322 0 -5.28610859147e-11)
(-88.322 0 -6.97437599865e-11)
(-88.322 0 -4.74499964196e-12)
(-88.322 0 -9.18783624244e-12)
(-88.322 0 -3.09622549677e-11)
(-88.322 0 9.85041739658e-11)
(-88.322 0 2.01109103851e-10)
(-88.322 0 -1.2236017547e-10)
(-88.322 0 -2.02700719e-10)
(-88.322 0 -2.94095654338e-10)
(-88.322 0 1.47945672727e-10)
(-88.322 0 8.49521178723e-11)
(-88.322 0 -7.86886802929e-11)
(-88.322 0 -7.12553792357e-11)
(-88.322 0 -7.62080511548e-11)
(-88.322 0 -4.66841022574e-11)
(-88.322 0 -3.95662529963e-11)
(-88.322 0 -1.65287668721e-11)
(-88.322 0 1.65620617295e-11)
(-88.322 0 4.61104026858e-11)
(-88.322 0 -6.76403802891e-11)
(-88.322 0 1.0028125356e-10)
(-88.322 0 -1.37131543469e-10)
(-88.322 0 -1.65517748123e-10)
(-88.322 0 -1.78871187643e-10)
(-88.322 0 4.97392224942e-11)
(-88.322 0 -1.51966543213e-10)
(-88.3220000001 0 -2.26513044804e-10)
(-88.322 0 1.75133469243e-10)
(-88.322 0 1.2884621698e-10)
(-88.322 0 -1.18510933323e-10)
(-88.322 0 -7.41422000251e-12)
(-88.322 0 -1.98810887281e-10)
(-88.322 0 -1.98991180548e-10)
(-88.322 0 -6.76359431452e-11)
(-88.322 0 -2.26199658205e-10)
(-88.322 0 -1.18759899662e-10)
(-88.322 0 -1.5330080543e-10)
(-88.3220000001 0 1.18286486824e-10)
(-88.3220000002 0 1.92989653674e-10)
(-88.3219999995 0 -1.58130478905e-10)
(-88.3219999996 0 1.64682316062e-11)
(-88.3220000009 0 -1.20263065887e-10)
(-88.3220000002 0 1.34142432287e-10)
(-88.3219999996 0 -1.5300416633e-10)
(-88.3220000001 0 -3.93011308565e-10)
(-88.322 0 -1.61604246337e-10)
(-88.3219999999 0 -2.93143226435e-11)
(-88.322 0 3.81008910377e-11)
(-88.322 0 5.71010628209e-12)
(-88.322 0 -2.71416088565e-14)
(-88.322 0 1.57607885621e-13)
(-88.322 0 4.60343537062e-11)
(-88.322 0 -7.72447139379e-11)
(-88.322 0 -1.85406371114e-11)
(-88.322 0 -7.95232051844e-12)
(-88.322 0 -9.9333166824e-12)
(-88.322 0 -2.34713618421e-12)
(-88.322 0 9.57066561068e-12)
(-88.3220000002 0 -1.14878390176e-11)
(-88.3220000003 0 3.04743752119e-11)
(-88.3219999998 0 -6.3352408534e-11)
(-88.3219999999 0 2.25971229511e-10)
(-88.3220000005 0 -2.8154857877e-10)
(-88.3220000002 0 -3.29256572673e-10)
(-88.3219999994 0 -1.05125316325e-11)
(-88.3219999995 0 -8.07109729649e-12)
(-88.3220000001 0 -1.33123524666e-11)
(-88.322 0 -3.5189841256e-12)
(-88.322 0 -6.34808186642e-12)
(-88.322 0 4.86911339435e-12)
(-88.322 0 -3.43778672665e-12)
(-88.322 0 -7.92309009466e-12)
(-88.322 0 -1.88600035418e-11)
(-88.322 0 -6.50028250604e-12)
(-88.322 0 8.37963555654e-12)
(-88.322 0 -1.86109918493e-12)
(-88.322 0 -3.5803521323e-12)
(-88.322 0 -1.0756309667e-11)
(-88.322 0 -6.51635656682e-12)
(-88.322 0 -2.32540520726e-11)
(-88.322 0 -1.40978822794e-12)
(-88.3219999999 0 -4.58423315804e-14)
(-88.3220000002 0 9.98468869488e-13)
(-88.3219999999 0 -9.22333311098e-14)
(-88.3220000001 0 -1.52682406029e-12)
(-88.3220000004 0 1.33496341292e-14)
(-88.3219999999 0 1.28117306481e-12)
(-88.3219999994 0 -2.70475580805e-11)
(-88.3220000002 0 -5.97665191932e-12)
(-88.3220000007 0 -1.07540630547e-12)
(-88.3219999992 0 -3.54924310183e-12)
(-88.3219999993 0 -3.2667836476e-13)
(-88.3220000006 0 2.67953467815e-12)
(-88.3220000003 0 3.05927594256e-13)
(-88.3220000002 0 7.77500310028e-13)
(-88.3220000004 0 5.89726773104e-13)
(-88.3219999998 0 -2.75523739954e-12)