/*--------------------------------*- C++ -*----------------------------------*\
  =========                 |
  \\      /  F ield         | OpenFOAM: The Open Source CFD Toolbox
   \\    /   O peration     | Website:  https://openfoam.org
    \\  /    A nd           | Version:  6
     \\/     M anipulation  |
\*---------------------------------------------------------------------------*/
FoamFile
{
    version     2.0;
    format      ascii;
    class       volVectorField;
    location    "3.9e-05";
    object      U;
}
// * * * * * * * * * * * * * * * * * * * * * * * * * * * * * * * * * * * * * //

dimensions      [0 1 -1 0 0 0 0];

internalField   nonuniform List<vector> 
8192
(
(-88.3220000002 0 -2.64088349678e-10)
(-88.3219999996 0 -3.07498388911e-11)
(-88.322 0 -6.54629863109e-11)
(-88.3220000001 0 -1.11361350335e-10)
(-88.3219999998 0 -5.49967739775e-11)
(-88.3219999999 0 2.3259967543e-11)
(-88.3220000001 0 -1.15571158973e-12)
(-88.322 0 1.22414073933e-11)
(-88.322 0 -1.38089942642e-10)
(-88.322 0 -4.36015729561e-10)
(-88.322 0 -4.17462041472e-10)
(-88.322 0 2.5420326073e-10)
(-88.322 0 4.98957091329e-10)
(-88.322 0 -4.29115112535e-10)
(-88.322 0 -5.1820979471e-10)
(-88.322 0 2.28293355903e-10)
(-88.322 0 8.10615333935e-11)
(-88.322 0 3.59228193215e-10)
(-88.3220000001 0 -3.5949430498e-10)
(-88.322 0 -3.2144685802e-10)
(-88.3219999999 0 2.48786837741e-10)
(-88.3220000001 0 2.81318939639e-10)
(-88.3220000001 0 -2.76201439437e-10)
(-88.3219999999 0 -3.59782503759e-10)
(-88.322 0 9.21330513388e-11)
(-88.322 0 6.80654451393e-11)
(-88.322 0 1.11225798112e-10)
(-88.322 0 8.57998805189e-11)
(-88.3220000001 0 1.34387146943e-10)
(-88.322 0 -5.88532253066e-11)
(-88.3219999999 0 1.10625910208e-10)
(-88.3219999999 0 2.33574720761e-11)
(-88.3219999995 0 4.78471704766e-11)
(-88.3220000009 0 3.22761042905e-10)
(-88.3220000015 0 -4.00250256304e-10)
(-88.3219999993 0 -4.09121708269e-10)
(-88.3219999999 0 -1.80272411438e-11)
(-88.3219999996 0 -4.03464980951e-10)
(-88.3219999991 0 1.62243202391e-10)
(-88.3220000004 0 7.38162311366e-11)
(-88.3220000001 0 1.27629514234e-11)
(-88.322 0 5.44107503132e-12)
(-88.322 0 -1.53457380922e-11)
(-88.322 0 -9.91736400417e-12)
(-88.322 0 -3.98785622076e-11)
(-88.322 0 -2.01326467066e-11)
(-88.322 0 -1.14173215894e-11)
(-88.322 0 -4.7796231207e-12)
(-88.322 0 -1.50885445572e-12)
(-88.322 0 -2.76566319149e-11)
(-88.322 0 1.96956240755e-11)
(-88.3220000002 0 2.70885449218e-12)
(-88.3219999998 0 -9.91902914694e-11)
(-88.3219999997 0 1.65916192463e-10)
(-88.3220000008 0 1.10615397538e-10)
(-88.3220000004 0 -1.89860637057e-10)
(-88.3219999998 0 -4.62638021898e-11)
(-88.3219999998 0 -1.00692220251e-10)
(-88.3220000001 0 -3.19818825095e-11)
(-88.3219999995 0 -1.44595604935e-10)
(-88.321999999 0 2.19302655555e-10)
(-88.3219999998 0 3.13323856134e-10)
(-88.3220000005 0 2.93613259286e-10)
(-88.3220000012 0 8.81952702191e-11)
(-88.322 0 -9.14980834455e-11)
(-88.322 0 -4.06364193393e-11)
(-88.3220000001 0 4.06642367385e-11)
(-88.3219999999 0 7.84304018428e-12)
(-88.322 0 7.28185557704e-11)
(-88.3220000001 0 -5.15495727638e-11)
(-88.3219999999 0 6.85639698625e-12)
(-88.3220000003 0 -2.11892720264e-13)
(-88.3220000008 0 -3.21484113712e-12)
(-88.3220000005 0 -2.1517330012e-11)
(-88.3219999987 0 1.05567835704e-11)
(-88.3219999982 0 -8.41578256507e-11)
(-88.3220000013 0 -1.18613949471e-11)
(-88.3220000019 0 -9.01081678551e-11)
(-88.3219999988 0 -1.60854647453e-10)
(-88.3219999989 0 1.46038137659e-10)
(-88.3219999998 0 4.31604449036e-11)
(-88.3220000009 0 1.00826652179e-10)
(-88.3220000013 0 -1.79658216859e-10)
(-88.3219999989 0 -1.16249452571e-10)
(-88.3219999989 0 2.05798817505e-12)
(-88.322000001 0 8.59479284639e-11)
(-88.3220000011 0 1.04721185919e-10)
(-88.3219999993 0 -5.64554616836e-11)
(-88.3219999992 0 2.97436526789e-10)
(-88.322 0 -2.14170035134e-10)
(-88.322 0 2.43242709301e-10)
(-88.322 0 1.97801937075e-10)
(-88.3220000002 0 3.78120830878e-11)
(-88.322 0 5.84960501876e-11)
(-88.322 0 1.9146235641e-11)
(-88.3220000001 0 -2.13413855339e-11)
(-88.3219999999 0 -8.58999816976e-11)
(-88.3220000001 0 -2.81896605033e-10)
(-88.322 0 2.83418474332e-10)
(-88.3219999999 0 3.80490135845e-10)
(-88.322 0 -9.40004098175e-12)
(-88.322 0 2.33060074365e-10)
(-88.322 0 -1.60813782558e-10)
(-88.322 0 -8.610631011e-11)
(-88.322 0 2.27119230674e-11)
(-88.322 0 -1.27036998014e-11)
(-88.322 0 -6.21715215435e-13)
(-88.322 0 -5.54326200448e-11)
(-88.322 0 -3.14724525145e-10)
(-88.322 0 -2.1291178794e-10)
(-88.322 0 -2.30454033434e-10)
(-88.322 0 -2.05704774067e-10)
(-88.322 0 -2.51368408515e-10)
(-88.322 0 -1.0999120499e-10)
(-88.322 0 2.13213427436e-10)
(-88.322 0 -2.52278867602e-11)
(-88.3219999999 0 1.77560345107e-11)
(-88.322 0 -2.26240096378e-11)
(-88.322 0 -1.85109870145e-10)
(-88.322 0 3.52175887615e-10)
(-88.322 0 -8.52336416459e-11)
(-88.322 0 -2.25541290917e-10)
(-88.322 0 -3.55967167523e-10)
(-88.322 0 4.75563623682e-10)
(-88.322 0 1.49612023583e-10)
(-88.322 0 -6.81543315113e-10)
(-88.322 0 -7.38529994075e-10)
(-88.322 0 -3.09450929202e-10)
(-88.3219999997 0 2.93961700837e-11)
(-88.3219999994 0 2.61186626781e-11)
(-88.322 0 -6.87850056058e-12)
(-88.322 0 7.103696385e-11)
(-88.322 0 -2.72016752471e-11)
(-88.322 0 4.06775951234e-11)
(-88.322 0 -5.02677352001e-12)
(-88.322 0 -7.67123739178e-12)
(-88.322 0 1.15808243089e-10)
(-88.322 0 4.12939755946e-10)
(-88.3220000001 0 3.9617286916e-10)
(-88.322 0 -2.31780296258e-10)
(-88.322 0 -4.73915396181e-10)
(-88.3220000003 0 3.75702132623e-10)
(-88.3219999995 0 4.70120384652e-10)
(-88.3219999995 0 -2.32289670041e-10)
(-88.3220000001 0 -8.26038733431e-11)
(-88.3220000004 0 -3.34119176104e-10)
(-88.3220000005 0 3.61318400271e-10)
(-88.3219999997 0 3.07378142839e-10)
(-88.3219999995 0 -2.46805518267e-10)
(-88.3219999998 0 -2.28861956278e-10)
(-88.3220000004 0 2.94393387763e-10)
(-88.3219999996 0 3.56190326708e-10)
(-88.3220000003 0 -4.97870833518e-11)
(-88.322 0 -6.39186761061e-11)
(-88.3219999991 0 -5.19883889397e-11)
(-88.3220000004 0 4.10991851399e-12)
(-88.3220000004 0 5.42412176567e-11)
(-88.322 0 -3.65082082868e-11)
(-88.3220000001 0 8.92873244708e-11)
(-88.3220000002 0 -1.48689671923e-11)
(-88.322 0 -2.6755498358e-10)
(-88.322 0 2.59158173616e-10)
(-88.3220000001 0 3.6561545831e-10)
(-88.322 0 -1.46521373638e-10)
(-88.3220000002 0 -3.8966466395e-10)
(-88.322 0 5.15567938682e-10)
(-88.3219999997 0 3.1119393713e-10)
(-88.322 0 -3.23394584827e-10)
(-88.322 0 -2.95062143421e-10)
(-88.322 0 5.12847844448e-11)
(-88.3220000001 0 -1.73474581438e-10)
(-88.3220000007 0 -4.96311913653e-11)
(-88.3220000003 0 -1.85639785995e-10)
(-88.3219999998 0 3.25556246121e-11)
(-88.322 0 -3.24609453003e-10)
(-88.3219999999 0 -4.94794836423e-10)
(-88.3219999998 0 2.6119940046e-10)
(-88.3219999991 0 -1.69809512189e-12)
(-88.3219999998 0 -1.80720762448e-10)
(-88.3220000006 0 9.80373403447e-11)
(-88.3219999998 0 -3.1400278986e-10)
(-88.3220000001 0 2.74448232685e-10)
(-88.3219999999 0 -1.49357449088e-11)
(-88.3220000002 0 -2.61802463035e-10)
(-88.322000001 0 -2.27215521476e-10)
(-88.3220000004 0 -2.20876937465e-10)
(-88.3219999987 0 -1.26211154798e-10)
(-88.3219999985 0 -1.02614656391e-10)
(-88.3220000013 0 -1.17384451216e-10)
(-88.3220000016 0 5.68738886961e-11)
(-88.3219999997 0 1.70600488879e-11)
(-88.3219999999 0 2.45589926548e-11)
(-88.322 0 3.99205132967e-10)
(-88.322 0 1.11537160728e-10)
(-88.322 0 2.45248813681e-11)
(-88.322 0 7.79338783317e-11)
(-88.322 0 -5.03378873515e-11)
(-88.322 0 1.40532608305e-11)
(-88.322 0 2.75446111578e-12)
(-88.322 0 1.91594699146e-11)
(-88.322 0 1.04265040549e-11)
(-88.322 0 4.82831286109e-11)
(-88.322 0 6.26145687964e-12)
(-88.3219999999 0 5.87932538579e-11)
(-88.3220000001 0 1.35380430896e-11)
(-88.3220000001 0 1.37938897112e-10)
(-88.322 0 1.88760216725e-10)
(-88.322 0 -1.44523357853e-10)
(-88.322 0 -4.36939267664e-11)
(-88.322 0 -1.37797258354e-10)
(-88.322 0 2.2000590042e-10)
(-88.322 0 2.67907855923e-10)
(-88.322 0 -3.02934987633e-10)
(-88.322 0 -4.7998122165e-10)
(-88.322 0 2.17341183728e-10)
(-88.322 0 2.96988582081e-10)
(-88.322 0 -1.18635844719e-10)
(-88.322 0 4.0194006175e-10)
(-88.3219999999 0 -1.67540196052e-10)
(-88.3219999998 0 -3.68059373836e-11)
(-88.3220000002 0 -1.04910343311e-10)
(-88.322 0 -1.1229893287e-10)
(-88.3219999999 0 9.91942449649e-12)
(-88.3220000008 0 -4.74288166699e-11)
(-88.3219999994 0 -7.27259366494e-12)
(-88.3219999989 0 -2.72093556574e-11)
(-88.3220000008 0 3.46002048141e-11)
(-88.3220000013 0 4.98184253615e-11)
(-88.3219999987 0 -2.44188837262e-11)
(-88.3219999986 0 2.02180268635e-10)
(-88.3220000016 0 7.73464951827e-13)
(-88.3220000011 0 1.26546678375e-11)
(-88.3219999992 0 -2.32242559497e-11)
(-88.3219999998 0 -1.25201732424e-11)
(-88.3220000002 0 -5.61464455151e-12)
(-88.322 0 5.79312711042e-11)
(-88.3219999998 0 3.4231106654e-10)
(-88.3220000003 0 2.13764171404e-10)
(-88.322000001 0 2.28075896334e-10)
(-88.3219999988 0 1.56189961564e-10)
(-88.3219999991 0 3.11068859562e-10)
(-88.3220000009 0 1.6843336857e-10)
(-88.3219999998 0 -2.28322864942e-10)
(-88.3220000003 0 8.45810920632e-11)
(-88.3219999995 0 -9.47467888645e-11)
(-88.3219999994 0 2.3381259838e-10)
(-88.3220000011 0 3.80067536754e-10)
(-88.3220000004 0 -4.31172891442e-10)
(-88.3219999999 0 -5.72999296879e-11)
(-88.3219999998 0 3.4166002643e-10)
(-88.3219999998 0 1.34158739985e-10)
(-88.3219999999 0 -2.77290100622e-10)
(-88.3219999997 0 -6.02915720165e-10)
(-88.3219999998 0 6.99370556768e-10)
(-88.3220000001 0 5.79513156541e-10)
(-88.322 0 4.03634061672e-10)
(-88.3220000002 0 -2.24426447516e-10)
(-88.3220000001 0 -4.43094630454e-11)
(-88.322 0 7.23518281002e-11)
(-88.3220000001 0 4.50681649618e-13)
(-88.322 0 -2.32094829405e-11)
(-88.3219999999 0 2.81564403762e-12)
(-88.322 0 1.54031112016e-11)
(-88.322 0 2.00478363419e-11)
(-88.322 0 1.50564671951e-11)
(-88.322 0 2.97795104488e-12)
(-88.322 0 1.59727340133e-11)
(-88.322 0 -8.71319512633e-11)
(-88.322 0 -1.02371023357e-10)
(-88.322 0 -6.65652904251e-12)
(-88.322 0 3.65754174289e-12)
(-88.322 0 1.20388622586e-11)
(-88.322 0 4.5753369556e-11)
(-88.3219999999 0 5.50765846985e-11)
(-88.3219999997 0 1.34871304489e-12)
(-88.3220000007 0 1.15403557898e-11)
(-88.322000001 0 1.23217588782e-11)
(-88.3219999988 0 2.20548237093e-12)
(-88.3219999988 0 2.34660728562e-11)
(-88.3220000003 0 -8.21029571954e-11)
(-88.3220000001 0 4.20936135696e-11)
(-88.3220000001 0 5.74997612169e-12)
(-88.322 0 1.40127813023e-10)
(-88.3220000002 0 1.97563422903e-10)
(-88.3220000006 0 2.16412521587e-10)
(-88.3219999998 0 1.20205753656e-11)
(-88.3219999999 0 1.64813591761e-10)
(-88.3220000002 0 2.3086824245e-10)
(-88.322 0 -1.70530247902e-11)
(-88.322 0 -3.44484276302e-10)
(-88.322 0 -5.22800564461e-10)
(-88.322 0 -2.50565323303e-11)
(-88.3219999999 0 5.03562153262e-10)
(-88.322 0 -6.48876287289e-10)
(-88.3220000001 0 -2.77364184063e-10)
(-88.322 0 2.37370741646e-10)
(-88.322 0 2.48572479732e-10)
(-88.322 0 -4.83870014936e-11)
(-88.322 0 1.54779203499e-10)
(-88.322 0 4.88380847408e-11)
(-88.322 0 1.6418595016e-10)
(-88.322 0 -2.91278008524e-11)
(-88.3220000001 0 3.19711168652e-10)
(-88.3219999999 0 4.5839755645e-10)
(-88.3219999998 0 -2.39226918533e-10)
(-88.3220000002 0 -2.83734637204e-11)
(-88.3219999999 0 1.35962760485e-10)
(-88.3220000003 0 -2.79375094439e-11)
(-88.3219999995 0 2.50952885745e-10)
(-88.3219999991 0 -2.40555176077e-10)
(-88.3220000013 0 -2.06925364254e-11)
(-88.322000001 0 -1.5675950844e-10)
(-88.3219999994 0 9.34169982297e-12)
(-88.322 0 1.22023463567e-10)
(-88.3219999998 0 -2.88213153311e-10)
(-88.322 0 4.99649176903e-10)
(-88.3219999994 0 3.71228961112e-10)
(-88.3219999992 0 2.62647806311e-10)
(-88.3220000002 0 1.12478021439e-10)
(-88.3220000002 0 5.00123034996e-11)
(-88.3220000002 0 -4.25246625432e-11)
(-88.3219999994 0 -1.16819089026e-10)
(-88.322 0 2.10155828079e-10)
(-88.3220000001 0 3.97886410635e-10)
(-88.322 0 -1.33344739096e-10)
(-88.322 0 3.75513280852e-10)
(-88.322 0 3.26553395214e-10)
(-88.322 0 -2.27953772879e-10)
(-88.322 0 -2.60458324889e-11)
(-88.322 0 5.93281292676e-11)
(-88.3220000001 0 -7.34045394443e-12)
(-88.3220000001 0 6.2374238779e-11)
(-88.322 0 8.59639330825e-11)
(-88.322 0 -2.12897087572e-10)
(-88.3219999999 0 3.55393181902e-10)
(-88.3219999999 0 3.19171885175e-10)
(-88.3219999999 0 2.88632804312e-10)
(-88.3220000001 0 9.15781403746e-11)
(-88.3220000001 0 -2.85079628886e-10)
(-88.322 0 -1.6496285325e-10)
(-88.322 0 6.06627816684e-10)
(-88.322 0 7.56630789657e-10)
(-88.3220000001 0 -3.98719366775e-10)
(-88.322 0 -4.34524330856e-10)
(-88.3219999999 0 -2.71142639837e-10)
(-88.3219999998 0 7.26120215718e-11)
(-88.3219999995 0 9.52203866928e-11)
(-88.3219999996 0 -1.94099936668e-10)
(-88.3220000006 0 3.03449619162e-10)
(-88.322 0 3.0320998413e-10)
(-88.3219999995 0 2.85877315866e-11)
(-88.3220000012 0 -2.8872439234e-10)
(-88.3220000005 0 5.70646442918e-11)
(-88.3219999998 0 4.51713752278e-11)
(-88.3220000002 0 5.17765474071e-11)
(-88.3219999993 0 -2.52648173542e-11)
(-88.322 0 8.119369161e-13)
(-88.3220000002 0 -1.48604214843e-11)
(-88.3219999999 0 3.58074460255e-12)
(-88.3220000001 0 1.82890591659e-11)
(-88.3219999999 0 2.01188018505e-11)
(-88.322 0 -8.84176292204e-12)
(-88.322 0 5.73165328449e-12)
(-88.322 0 4.51884908262e-12)
(-88.322 0 2.9472846373e-12)
(-88.322 0 1.746976722e-12)
(-88.322 0 -1.77461495486e-11)
(-88.322 0 1.13652675293e-10)
(-88.322 0 -7.79798135351e-11)
(-88.3220000001 0 -5.38552684746e-11)
(-88.3219999999 0 5.01732440596e-12)
(-88.3220000001 0 -4.71150050437e-11)
(-88.322 0 1.7570479715e-10)
(-88.3219999999 0 -3.44524613324e-10)
(-88.3220000009 0 -2.98114706439e-10)
(-88.3220000002 0 2.70786800208e-10)
(-88.3219999994 0 1.93430997335e-10)
(-88.3220000005 0 1.6583601863e-11)
(-88.321999999 0 2.46846267331e-10)
(-88.3219999986 0 -5.20772382382e-11)
(-88.3220000002 0 2.47882308428e-10)
(-88.3220000003 0 -2.68230364655e-10)
(-88.3220000005 0 -7.29568989451e-11)
(-88.3220000007 0 -1.65781339589e-10)
(-88.3220000002 0 2.82226269725e-10)
(-88.3219999996 0 1.59859347891e-11)
(-88.321999999 0 -7.99650773777e-11)
(-88.3220000009 0 1.62321781126e-11)
(-88.322 0 5.6038524195e-12)
(-88.3219999989 0 1.08986465159e-11)
(-88.3220000012 0 -3.5638772174e-11)
(-88.3220000007 0 1.99615367356e-11)
(-88.3219999995 0 -6.44906976817e-11)
(-88.322 0 -1.35413162689e-10)
(-88.322 0 3.29855004833e-10)
(-88.3219999998 0 -3.55541832807e-10)
(-88.3220000005 0 -3.92043044661e-10)
(-88.3219999994 0 -7.0306155173e-11)
(-88.321999999 0 -1.03875651818e-10)
(-88.3220000001 0 -3.62704997562e-11)
(-88.3220000005 0 -6.36720199879e-11)
(-88.3220000011 0 -5.39147585333e-11)
(-88.3220000002 0 6.24181915889e-13)
(-88.3219999989 0 -5.53859076167e-12)
(-88.3219999992 0 1.83833402866e-15)
(-88.3220000008 0 -6.96350146766e-13)
(-88.3220000013 0 -1.27292318212e-11)
(-88.322 0 5.98962729059e-11)
(-88.3219999991 0 -5.65883829163e-11)
(-88.3219999994 0 2.17176956242e-11)
(-88.3220000006 0 -1.60509280504e-10)
(-88.3219999998 0 -2.05330626375e-10)
(-88.3219999995 0 -3.59971732663e-10)
(-88.3220000003 0 1.03476968759e-10)
(-88.3220000012 0 -3.00069244029e-10)
(-88.3220000002 0 -2.80210129326e-10)
(-88.3219999992 0 5.2744776063e-10)
(-88.3219999999 0 1.58074019176e-10)
(-88.3220000001 0 -1.55009743213e-10)
(-88.3220000001 0 -1.83000689396e-10)
(-88.3219999999 0 -1.41273639086e-10)
(-88.322 0 4.53747600475e-10)
(-88.322 0 -3.28846864033e-11)
(-88.322 0 -1.33469962699e-10)
(-88.322 0 1.95525033211e-11)
(-88.322 0 2.78810962918e-11)
(-88.322 0 -5.04344911131e-11)
(-88.322 0 2.13607632702e-11)
(-88.322 0 2.48848210924e-11)
(-88.322 0 3.0984450567e-12)
(-88.3219999999 0 2.60929257194e-12)
(-88.322 0 -6.55385737659e-12)
(-88.3220000001 0 1.02801727791e-11)
(-88.322 0 -5.44483346793e-12)
(-88.322 0 4.54563809868e-11)
(-88.322 0 -2.83981147287e-11)
(-88.3220000001 0 5.94015524435e-11)
(-88.3219999999 0 -7.59789766874e-11)
(-88.322 0 3.49297827163e-11)
(-88.3220000001 0 2.97872916632e-10)
(-88.322 0 1.00090542284e-10)
(-88.322 0 3.49582881381e-11)
(-88.322 0 3.97395487377e-10)
(-88.322 0 -3.49035416719e-10)
(-88.3219999999 0 -2.29624661278e-10)
(-88.3219999999 0 9.98640587219e-11)
(-88.3220000001 0 1.48007241814e-10)
(-88.3220000001 0 -7.78288531967e-11)
(-88.322 0 5.18652708517e-11)
(-88.3220000001 0 1.1500284474e-10)
(-88.3219999999 0 -2.04287278989e-10)
(-88.322 0 -3.96452127597e-10)
(-88.322 0 2.07054617476e-10)
(-88.322 0 -3.88113567802e-10)
(-88.322 0 -3.30522024438e-10)
(-88.3220000001 0 2.28228904497e-10)
(-88.3220000003 0 2.36547161132e-11)
(-88.3219999991 0 -7.59988854959e-11)
(-88.3220000006 0 2.44963437658e-11)
(-88.3220000016 0 -6.29208194188e-11)
(-88.3219999994 0 -6.76838050378e-11)
(-88.3219999993 0 1.82485426113e-10)
(-88.3219999998 0 -3.60932988183e-10)
(-88.3219999999 0 -2.97642472329e-10)
(-88.3219999999 0 -2.78116652186e-10)
(-88.322 0 -5.86537894471e-11)
(-88.322 0 2.29832407138e-10)
(-88.322 0 2.0881840794e-11)
(-88.322 0 -3.004722006e-10)
(-88.322 0 -3.98899642258e-10)
(-88.322 0 9.45016216114e-11)
(-88.322 0 2.0779956882e-10)
(-88.3219999999 0 9.77984485695e-11)
(-88.3220000001 0 -2.4762499831e-10)
(-88.322 0 -1.95382040238e-10)
(-88.322 0 8.98569072921e-12)
(-88.322 0 -3.03588740126e-10)
(-88.322 0 -2.39081110331e-10)
(-88.3220000002 0 -1.16401158083e-10)
(-88.3219999996 0 3.26804714492e-10)
(-88.3219999997 0 -3.12408030809e-11)
(-88.3220000012 0 -2.18200308064e-11)
(-88.3220000009 0 -6.82971019499e-11)
(-88.3219999993 0 -2.19892214275e-11)
(-88.3219999987 0 8.2970361703e-11)
(-88.3219999999 0 -1.03295094226e-11)
(-88.3220000011 0 1.65459831521e-11)
(-88.3220000001 0 -2.02086563659e-11)
(-88.3219999995 0 -7.86358488669e-12)
(-88.3220000001 0 2.24676348498e-11)
(-88.322 0 6.23764792755e-13)
(-88.3219999999 0 -7.37674422202e-12)
(-88.322 0 -2.75155614906e-11)
(-88.322 0 -1.23659844695e-11)
(-88.3220000001 0 1.9148071999e-11)
(-88.3219999999 0 -7.23563101274e-11)
(-88.322 0 1.80368702616e-11)
(-88.322 0 2.64074933989e-11)
(-88.3219999999 0 -4.99998531315e-11)
(-88.322 0 -1.8628064258e-11)
(-88.322 0 1.41612275044e-11)
(-88.322 0 3.26714253064e-10)
(-88.3220000002 0 3.31726630238e-10)
(-88.3220000001 0 -2.88076784344e-10)
(-88.3219999999 0 -2.2157427128e-10)
(-88.3219999999 0 -6.49192930704e-11)
(-88.3219999998 0 -3.16461903706e-10)
(-88.3219999998 0 8.65046413474e-11)
(-88.3219999993 0 -2.75896488267e-10)
(-88.3219999996 0 2.80372629415e-10)
(-88.3220000009 0 -5.37185700805e-11)
(-88.3220000004 0 6.90582411643e-11)
(-88.3220000001 0 -1.45175591115e-10)
(-88.3220000001 0 -3.42107249053e-11)
(-88.322 0 -3.35380617636e-11)
(-88.322 0 -2.1187177848e-11)
(-88.322 0 -2.65012851314e-11)
(-88.322 0 1.82878883418e-11)
(-88.322 0 1.25283437936e-11)
(-88.322 0 -4.20597524485e-11)
(-88.322 0 6.11474375695e-11)
(-88.322 0 1.19277096409e-10)
(-88.322 0 -3.50254294847e-10)
(-88.322 0 4.27474219081e-10)
(-88.322 0 4.79820926488e-10)
(-88.322 0 9.37833520342e-11)
(-88.322 0 1.002527376e-10)
(-88.322 0 2.20164413234e-11)
(-88.322 0 2.02294042195e-11)
(-88.322 0 4.33046345771e-12)
(-88.322 0 8.75399242272e-12)
(-88.322 0 7.01559057814e-13)
(-88.322 0 -1.17651972995e-11)
(-88.322 0 1.1715706152e-11)
(-88.322 0 1.69006068853e-11)
(-88.322 0 2.64772806499e-11)
(-88.322 0 -1.09345176002e-11)
(-88.322 0 -2.68499266808e-11)
(-88.322 0 1.38411461401e-11)
(-88.322 0 -1.24092770147e-11)
(-88.322 0 9.68910806919e-13)
(-88.322 0 -5.10904133428e-11)
(-88.322 0 3.0769643254e-11)
(-88.322 0 1.0156954717e-11)
(-88.322 0 -1.29613120876e-10)
(-88.322 0 2.0629685858e-10)
(-88.3220000001 0 4.35539662871e-11)
(-88.3219999999 0 4.14546308865e-11)
(-88.3219999999 0 -6.44104738837e-11)
(-88.322 0 -6.03983292403e-10)
(-88.322 0 7.86779414187e-11)
(-88.322 0 2.18792348445e-10)
(-88.322 0 6.07130405656e-12)
(-88.322 0 -2.51643465704e-11)
(-88.322 0 6.04670168595e-11)
(-88.322 0 -3.63656142762e-11)
(-88.322 0 -1.74600361973e-11)
(-88.322 0 -1.48407386921e-11)
(-88.322 0 -1.48819216274e-11)
(-88.322 0 3.85836691507e-11)
(-88.322 0 9.36621213526e-12)
(-88.3220000001 0 6.52690912355e-11)
(-88.322 0 -1.85938547032e-11)
(-88.3219999999 0 -9.34275425159e-12)
(-88.3219999994 0 -6.29366041374e-11)
(-88.3219999993 0 8.19210870847e-11)
(-88.3220000013 0 8.00459207913e-11)
(-88.3220000012 0 -2.13856647406e-10)
(-88.3219999995 0 -8.80844314836e-11)
(-88.3220000002 0 -1.0161661142e-10)
(-88.3219999997 0 -4.65262907329e-11)
(-88.3219999998 0 5.74126236005e-12)
(-88.3219999995 0 7.3546192693e-11)
(-88.3219999995 0 -7.4489445167e-10)
(-88.3220000004 0 -5.14371192639e-10)
(-88.322 0 -1.74280918734e-10)
(-88.3219999998 0 3.66983822906e-11)
(-88.3219999999 0 9.77432850931e-11)
(-88.3219999999 0 -7.18679391957e-11)
(-88.322 0 -2.1078514777e-11)
(-88.3219999999 0 1.96901558386e-11)
(-88.3219999999 0 2.19944547092e-11)
(-88.322 0 -4.42909135334e-11)
(-88.322 0 -5.86580338843e-11)
(-88.322 0 -2.24900626756e-11)
(-88.322 0 -2.70829102309e-11)
(-88.322 0 -1.07539370615e-11)
(-88.322 0 -1.00759489896e-11)
(-88.322 0 -6.88152806723e-12)
(-88.322 0 -7.82586577652e-12)
(-88.322 0 -1.52684356618e-11)
(-88.322 0 -1.48761079678e-11)
(-88.322 0 -1.26947826064e-11)
(-88.322 0 -8.79336525253e-12)
(-88.322 0 3.22341268358e-11)
(-88.322 0 -1.05058923645e-10)
(-88.3219999999 0 -4.62172394669e-11)
(-88.322 0 2.56733587836e-10)
(-88.322 0 2.13921697068e-10)
(-88.322 0 -3.39606177023e-10)
(-88.322 0 -2.89247922716e-10)
(-88.322 0 -1.16161204634e-10)
(-88.322 0 2.23710789826e-11)
(-88.322 0 -9.16214027154e-11)
(-88.3220000001 0 5.17924662112e-11)
(-88.322 0 -1.14771372073e-10)
(-88.322 0 -3.43425750546e-10)
(-88.3219999999 0 -2.38535863206e-10)
(-88.3219999993 0 5.493553187e-11)
(-88.3220000008 0 -3.05885595706e-10)
(-88.3220000012 0 -3.4931420421e-10)
(-88.3219999995 0 -3.524116783e-10)
(-88.322 0 3.55030351203e-10)
(-88.3219999996 0 2.94184688815e-10)
(-88.3219999994 0 -3.1887911686e-10)
(-88.3220000002 0 -2.50528511458e-10)
(-88.322 0 3.28023030027e-10)
(-88.322 0 6.44600391781e-11)
(-88.322 0 -2.47956414734e-10)
(-88.322 0 -3.7194727068e-10)
(-88.322 0 2.46874770588e-10)
(-88.322 0 -2.01598795406e-10)
(-88.322 0 6.8442998507e-12)
(-88.3219999999 0 -4.03403396056e-10)
(-88.322 0 3.88171644459e-10)
(-88.322 0 -3.67823057065e-11)
(-88.322 0 2.89270927344e-11)
(-88.3220000002 0 9.53777680151e-11)
(-88.3219999998 0 -2.38576020224e-10)
(-88.3219999997 0 -5.55891761726e-10)
(-88.3220000008 0 -6.05807257184e-10)
(-88.3220000004 0 -1.69511045105e-10)
(-88.3219999997 0 6.38385821499e-10)
(-88.3219999999 0 4.12056992688e-10)
(-88.3219999996 0 -7.51183975489e-11)
(-88.3219999996 0 -3.93093774081e-10)
(-88.3220000008 0 4.0544799056e-10)
(-88.3220000008 0 -1.73256448243e-11)
(-88.3219999997 0 -1.16509648113e-10)
(-88.3219999997 0 9.65149424221e-12)
(-88.322 0 8.83633138391e-11)
(-88.3220000003 0 5.41066086421e-11)
(-88.3220000002 0 7.74694874168e-11)
(-88.3219999999 0 -1.12103133406e-10)
(-88.322 0 6.15435826035e-11)
(-88.3220000001 0 -1.25037248152e-10)
(-88.3220000001 0 7.63241144213e-11)
(-88.322 0 9.38276130052e-11)
(-88.322 0 -1.08750584518e-10)
(-88.322 0 -2.84162913234e-10)
(-88.322 0 -1.38036681578e-10)
(-88.322 0 -3.12027659768e-10)
(-88.322 0 -3.47651028496e-10)
(-88.322 0 -1.99923781411e-10)
(-88.322 0 6.36119118191e-11)
(-88.322 0 3.05388561635e-11)
(-88.322 0 5.34139013832e-11)
(-88.322 0 -1.8782253285e-10)
(-88.3220000002 0 -4.11758848444e-10)
(-88.3220000001 0 2.06475848631e-10)
(-88.3219999992 0 2.62095650354e-10)
(-88.3219999995 0 4.94718989078e-10)
(-88.3220000012 0 -2.79809283964e-10)
(-88.322000001 0 -1.85599341988e-10)
(-88.3219999995 0 1.91432411052e-10)
(-88.3219999994 0 1.61194581733e-10)
(-88.3219999999 0 1.68421984016e-10)
(-88.322 0 7.82917162559e-11)
(-88.3220000001 0 1.21157812802e-10)
(-88.3220000007 0 7.0808404835e-11)
(-88.3220000002 0 -2.25447707322e-11)
(-88.3219999992 0 3.99901913412e-11)
(-88.3220000001 0 -5.98046036743e-11)
(-88.3220000008 0 -3.2500639935e-10)
(-88.3220000002 0 3.26317562467e-10)
(-88.3219999985 0 4.56904950226e-10)
(-88.3219999986 0 2.73986233477e-10)
(-88.3220000013 0 5.07088904647e-10)
(-88.3220000011 0 -2.34197594004e-10)
(-88.3219999988 0 3.25973978998e-12)
(-88.3219999994 0 5.96460352496e-12)
(-88.3220000011 0 -1.70841625197e-11)
(-88.3220000008 0 2.90975306788e-11)
(-88.321999999 0 -2.70460544424e-11)
(-88.3219999997 0 1.54079985901e-11)
(-88.3220000004 0 -4.93725398281e-11)
(-88.3220000004 0 -1.4342161765e-10)
(-88.3219999992 0 1.41031320089e-10)
(-88.3219999992 0 1.55995981238e-10)
(-88.3220000008 0 2.35060586867e-10)
(-88.3219999998 0 -2.65178865476e-10)
(-88.3220000003 0 -2.91915020386e-10)
(-88.3220000006 0 3.19945619991e-10)
(-88.322 0 -7.75140426228e-12)
(-88.3220000005 0 6.07487023823e-11)
(-88.3219999988 0 2.6569856835e-10)
(-88.3219999984 0 3.96629483405e-10)
(-88.3220000015 0 3.83375417523e-10)
(-88.3220000013 0 -1.17355349703e-10)
(-88.3219999989 0 -1.40567747706e-10)
(-88.3219999988 0 -1.76636153795e-10)
(-88.3220000005 0 3.07805201374e-10)
(-88.3220000004 0 2.38084575773e-10)
(-88.3219999996 0 1.8427074098e-10)
(-88.322 0 -1.04926701612e-10)
(-88.3219999999 0 -1.45984772432e-10)
(-88.3220000002 0 5.47140138898e-11)
(-88.322 0 -2.0666545128e-11)
(-88.322 0 -1.1143074935e-11)
(-88.3219999999 0 -3.11065825845e-11)
(-88.3219999997 0 3.10150576006e-11)
(-88.3220000003 0 3.23095753125e-11)
(-88.3220000008 0 1.34743850929e-11)
(-88.322 0 -1.32423519964e-11)
(-88.322 0 -9.73442079647e-11)
(-88.3220000004 0 -2.06497224474e-11)
(-88.3219999998 0 -4.45523821807e-11)
(-88.3219999992 0 -3.81077902713e-11)
(-88.3219999995 0 1.92790941122e-11)
(-88.322 0 -3.12836703168e-11)
(-88.3220000004 0 -1.33938734583e-11)
(-88.322000001 0 6.13124642986e-12)
(-88.3219999993 0 -4.72765391547e-11)
(-88.3219999986 0 1.13325500106e-10)
(-88.3219999993 0 3.21560619535e-11)
(-88.322000001 0 -2.08001332401e-10)
(-88.3220000014 0 -1.70326912746e-10)
(-88.3219999992 0 2.6730652159e-10)
(-88.3219999993 0 3.18785169777e-10)
(-88.322 0 1.17510228098e-10)
(-88.3220000001 0 -1.69090791991e-11)
(-88.3220000001 0 9.47313154121e-11)
(-88.3220000001 0 -3.44367879563e-11)
(-88.3220000002 0 1.21158961702e-10)
(-88.3220000001 0 3.410871564e-10)
(-88.322 0 2.40276241704e-10)
(-88.322 0 -6.40464616337e-11)
(-88.3220000001 0 3.23751269146e-10)
(-88.3219999997 0 3.02122466105e-10)
(-88.3219999996 0 4.18529384118e-10)
(-88.3219999999 0 -3.70206830549e-10)
(-88.3220000007 0 -2.72529604287e-10)
(-88.3220000003 0 3.93294205936e-10)
(-88.3219999997 0 2.5554181095e-10)
(-88.322 0 -3.17282297598e-10)
(-88.322 0 -6.02031616806e-11)
(-88.322 0 2.40822877483e-10)
(-88.322 0 3.70356194131e-10)
(-88.322 0 -2.83778740566e-10)
(-88.3220000003 0 1.85963733064e-10)
(-88.3219999996 0 -2.1255805284e-11)
(-88.3219999993 0 3.97370600473e-10)
(-88.3219999998 0 -3.95062373888e-10)
(-88.3220000009 0 1.8030354371e-11)
(-88.322000001 0 4.62968847688e-11)
(-88.321999999 0 -2.45938996465e-10)
(-88.3219999993 0 7.51727380705e-11)
(-88.3220000002 0 4.93335758411e-10)
(-88.3220000003 0 4.3496857001e-10)
(-88.3219999998 0 1.72445689208e-10)
(-88.3219999995 0 -3.18589726556e-10)
(-88.3220000008 0 -4.25196819995e-10)
(-88.3220000005 0 3.66443170629e-10)
(-88.3219999997 0 2.77588229435e-10)
(-88.3219999999 0 -1.67396028021e-10)
(-88.3219999999 0 -3.22616726768e-10)
(-88.322 0 7.80390495372e-11)
(-88.322 0 -1.02330830133e-10)
(-88.322 0 -2.28680962634e-12)
(-88.322 0 3.95811537865e-11)
(-88.322 0 -5.29566840831e-11)
(-88.322 0 1.11560176083e-10)
(-88.322 0 -2.58024454192e-11)
(-88.322 0 9.79933537548e-11)
(-88.322 0 -9.23266363712e-11)
(-88.322 0 -6.39825327375e-11)
(-88.3220000001 0 -9.51412856364e-11)
(-88.3220000001 0 -1.63502095642e-11)
(-88.322 0 1.95328442785e-10)
(-88.3219999999 0 9.79230520864e-11)
(-88.322 0 -7.21804313277e-11)
(-88.3219999999 0 -1.56799138056e-10)
(-88.322 0 3.57336555027e-11)
(-88.3220000001 0 3.98015987073e-11)
(-88.3219999999 0 -8.67240589389e-11)
(-88.322 0 1.856043246e-10)
(-88.322 0 4.08938446117e-10)
(-88.322 0 -2.00481651287e-10)
(-88.3219999999 0 -2.71458686313e-10)
(-88.3219999999 0 -5.06399077261e-10)
(-88.3220000002 0 2.39175775924e-10)
(-88.322 0 1.78528541921e-10)
(-88.3219999999 0 -1.85828417773e-10)
(-88.3220000001 0 -1.58339040851e-10)
(-88.322 0 -1.73411691068e-10)
(-88.322 0 -1.08644306849e-10)
(-88.322 0 -1.08708962817e-10)
(-88.322 0 -5.31877335104e-11)
(-88.322 0 3.94466388669e-11)
(-88.322 0 8.90043619847e-11)
(-88.3219999999 0 -1.10237247138e-10)
(-88.3220000001 0 1.82542262693e-10)
(-88.3220000001 0 -2.21196820194e-10)
(-88.3219999999 0 -3.33135277375e-10)
(-88.322 0 -3.10771947869e-10)
(-88.3219999999 0 1.22305641674e-12)
(-88.3220000001 0 -1.50555952731e-10)
(-88.3220000002 0 -3.19196755518e-10)
(-88.322 0 2.13108989607e-10)
(-88.322 0 2.18808398041e-10)
(-88.322 0 -2.43565688509e-10)
(-88.3220000001 0 -2.35581974134e-12)
(-88.322 0 -3.59161752076e-10)
(-88.3219999999 0 -3.28823538729e-10)
(-88.322 0 -3.03591181515e-11)
(-88.322 0 -4.31071939175e-10)
(-88.322 0 -2.35573179169e-10)
(-88.322 0 -2.73547382673e-10)
(-88.3220000003 0 1.8607598266e-10)
(-88.3220000004 0 2.73345784417e-10)
(-88.3219999992 0 -3.18642259136e-10)
(-88.3219999994 0 -1.72004548133e-11)
(-88.3220000012 0 -2.72684854922e-10)
(-88.3220000003 0 2.29439975187e-10)
(-88.3219999996 0 -3.16347825374e-10)
(-88.3220000002 0 -6.00450613691e-10)
(-88.3219999999 0 -2.02645909227e-10)
(-88.3219999999 0 1.0998643155e-11)
(-88.322 0 1.22934664122e-10)
(-88.322 0 2.91983490496e-11)
(-88.322 0 2.88988499317e-12)
(-88.322 0 3.94723325014e-12)
(-88.322 0 6.33354655636e-11)
(-88.322 0 -1.90311001889e-10)
(-88.3220000001 0 -6.03155843174e-11)
(-88.322 0 1.5964594137e-11)
(-88.322 0 -4.53786923905e-11)
(-88.322 0 -8.44170146586e-12)
(-88.3219999999 0 1.44371258083e-11)
(-88.3220000004 0 -3.31363848844e-11)
(-88.3220000006 0 4.80024914005e-11)
(-88.3219999995 0 -6.11756631527e-11)
(-88.3219999998 0 4.86647880772e-10)
(-88.3220000009 0 -3.7006837653e-10)
(-88.3220000003 0 -4.12709464078e-10)
(-88.321999999 0 3.2533483588e-11)
(-88.3219999991 0 -3.15128677664e-11)
(-88.3220000003 0 2.4457317488e-12)
(-88.3220000001 0 -6.8379881462e-13)
(-88.3219999999 0 -1.21418182796e-11)
(-88.322 0 9.78546793656e-12)
(-88.322 0 -3.90912505177e-12)