/*--------------------------------*- C++ -*----------------------------------*\
  =========                 |
  \\      /  F ield         | OpenFOAM: The Open Source CFD Toolbox
   \\    /   O peration     | Website:  https://openfoam.org
    \\  /    A nd           | Version:  6
     \\/     M anipulation  |
\*---------------------------------------------------------------------------*/
FoamFile
{
    version     2.0;
    format      ascii;
    class       volVectorField;
    location    "8e-06";
    object      U;
}
// * * * * * * * * * * * * * * * * * * * * * * * * * * * * * * * * * * * * * //

dimensions      [0 1 -1 0 0 0 0];

internalField   nonuniform List<vector> 
8192
(
(-88.322 0 -6.45562294862e-12)
(-88.322 0 -2.64132947321e-13)
(-88.322 0 -4.33496731492e-12)
(-88.322 0 -7.57630193454e-12)
(-88.322 0 1.47004591363e-12)
(-88.322 0 -9.49210607098e-13)
(-88.322 0 -3.10136934113e-13)
(-88.322 0 5.88650138106e-13)
(-88.322 0 -3.79441562423e-12)
(-88.322 0 -9.95708884337e-12)
(-88.322 0 -1.17140119715e-11)
(-88.322 0 3.50826792826e-12)
(-88.322 0 -5.36373740929e-12)
(-88.322 0 -7.4569077051e-12)
(-88.322 0 -1.92912423414e-11)
(-88.322 0 4.96149483099e-12)
(-88.322 0 -1.52983368888e-12)
(-88.322 0 6.39237445334e-12)
(-88.322 0 -1.07515997417e-11)
(-88.322 0 -1.3422399581e-11)
(-88.322 0 6.64675163099e-12)
(-88.322 0 6.9140655539e-12)
(-88.322 0 1.99699607788e-13)
(-88.322 0 -2.73236328125e-12)
(-88.322 0 2.11673300131e-12)
(-88.322 0 1.42570119808e-12)
(-88.322 0 3.74912958229e-12)
(-88.322 0 4.31335623383e-12)
(-88.322 0 1.43056327496e-12)
(-88.322 0 -3.07068656101e-12)
(-88.322 0 6.76525468668e-12)
(-88.322 0 -6.14758960234e-13)
(-88.322 0 -3.63472888044e-12)
(-88.322 0 1.23463847631e-11)
(-88.322 0 -1.09307202083e-11)
(-88.322 0 -4.3942653257e-12)
(-88.322 0 2.4561775171e-12)
(-88.322 0 -1.71810652211e-11)
(-88.322 0 8.59092992669e-12)
(-88.322 0 5.67951778517e-14)
(-88.322 0 4.43007082584e-12)
(-88.322 0 -4.95897778972e-13)
(-88.322 0 -3.07140027159e-12)
(-88.322 0 -8.38254440939e-13)
(-88.322 0 -6.11139708947e-12)
(-88.322 0 -1.34388954696e-12)
(-88.322 0 -1.58400371031e-13)
(-88.322 0 -9.1862126332e-14)
(-88.322 0 1.64360122547e-12)
(-88.322 0 -3.26606494999e-12)
(-88.322 0 -5.81158576435e-13)
(-88.322 0 -4.25535814548e-12)
(-88.322 0 -5.38870118936e-13)
(-88.322 0 6.88088088181e-12)
(-88.322 0 1.92239718494e-12)
(-88.322 0 -1.03173922448e-11)
(-88.322 0 4.07172375355e-12)
(-88.322 0 -6.17666994459e-12)
(-88.322 0 -1.55980915688e-12)
(-88.322 0 -1.98344827968e-13)
(-88.322 0 7.6751859003e-12)
(-88.322 0 1.48511940581e-11)
(-88.322 0 1.56017372796e-11)
(-88.322 0 7.4393660446e-12)
(-88.322 0 1.21939808556e-12)
(-88.322 0 9.95158136889e-14)
(-88.322 0 2.64263739372e-12)
(-88.322 0 -2.18536203693e-13)
(-88.322 0 -8.99848369731e-14)
(-88.322 0 -2.59224011135e-13)
(-88.322 0 -6.95933211817e-14)
(-88.322 0 1.1048917267e-14)
(-88.322 0 -1.16133367192e-13)
(-88.322 0 -3.32517100696e-12)
(-88.322 0 -1.96481841049e-13)
(-88.322 0 -6.48056423998e-12)
(-88.322 0 -2.56552842255e-14)
(-88.322 0 -2.34027440038e-14)
(-88.322 0 7.29129928064e-14)
(-88.322 0 1.95167145699e-12)
(-88.322 0 3.31662294662e-14)
(-88.322 0 5.18189825587e-13)
(-88.322 0 -4.4399284063e-12)
(-88.322 0 -1.44260809371e-13)
(-88.322 0 1.55149482852e-13)
(-88.322 0 6.95518252864e-14)
(-88.322 0 5.54484902017e-14)
(-88.322 0 4.08416339492e-13)
(-88.322 0 5.86036273081e-12)
(-88.322 0 -1.32318398911e-11)
(-88.322 0 8.91367417947e-12)
(-88.322 0 5.1035716013e-12)
(-88.322 0 1.50871717111e-12)
(-88.322 0 -1.25090270309e-13)
(-88.322 0 -2.59879006435e-13)
(-88.322 0 -2.90067223224e-13)
(-88.322 0 9.21109793804e-13)
(-88.322 0 -1.08144300788e-11)
(-88.322 0 2.60709375997e-12)
(-88.322 0 -1.99722576377e-12)
(-88.322 0 -5.7371547369e-12)
(-88.322 0 1.72286553673e-12)
(-88.322 0 -5.64901171547e-12)
(-88.322 0 -7.51754130032e-14)
(-88.322 0 2.42405348386e-12)
(-88.322 0 -6.60244201287e-13)
(-88.322 0 -1.20956300548e-13)
(-88.322 0 1.29353940618e-12)
(-88.322 0 -8.33906527375e-12)
(-88.322 0 -1.06188196516e-11)
(-88.322 0 -1.14880176099e-11)
(-88.322 0 -1.60267902738e-12)
(-88.322 0 -1.26540661e-11)
(-88.322 0 -2.82634950813e-12)
(-88.322 0 2.6642601426e-12)
(-88.322 0 -6.3847560516e-13)
(-88.322 0 -1.96197109577e-13)
(-88.322 0 -3.31498098886e-13)
(-88.322 0 -4.58260823147e-12)
(-88.322 0 2.22343671328e-11)
(-88.322 0 -4.66307996978e-12)
(-88.322 0 -7.83099790605e-12)
(-88.322 0 -1.71625651089e-11)
(-88.322 0 -2.1987315251e-12)
(-88.322 0 -1.48680874981e-12)
(-88.322 0 -2.86453035188e-11)
(-88.322 0 -2.26897357485e-11)
(-88.322 0 -9.38717611337e-12)
(-88.322 0 1.80896124519e-12)
(-88.322 0 1.35309109708e-12)
(-88.322 0 -1.598961428e-12)
(-88.322 0 7.82357051717e-12)
(-88.322 0 1.304145136e-12)
(-88.322 0 3.23528694574e-12)
(-88.322 0 5.63379984718e-13)
(-88.322 0 6.79163600793e-13)
(-88.322 0 -1.72079996328e-14)
(-88.322 0 9.43915222743e-12)
(-88.322 0 1.12796469596e-11)
(-88.322 0 -2.02522288438e-12)
(-88.322 0 3.01737722656e-12)
(-88.322 0 1.15473318991e-12)
(-88.322 0 1.78255449342e-11)
(-88.322 0 -4.7051270736e-12)
(-88.322 0 9.75444011007e-13)
(-88.322 0 -2.67257785837e-12)
(-88.322 0 1.06259645673e-11)
(-88.322 0 1.08485655809e-11)
(-88.322 0 -6.58802440048e-12)
(-88.322 0 -2.30291209845e-12)
(-88.322 0 3.65082100746e-12)
(-88.322 0 2.79746309568e-12)
(-88.322 0 2.01334931852e-12)
(-88.322 0 -1.35770184621e-12)
(-88.322 0 2.44036419357e-13)
(-88.322 0 1.05350898739e-12)
(-88.322 0 8.4376182133e-13)
(-88.322 0 -9.96441639746e-12)
(-88.322 0 4.00786966284e-12)
(-88.322 0 9.00162929318e-13)
(-88.322 0 1.48175067305e-12)
(-88.322 0 7.17632695166e-12)
(-88.322 0 2.27333302447e-11)
(-88.322 0 1.80625337321e-12)
(-88.322 0 -5.47636649047e-12)
(-88.322 0 6.76390809312e-12)
(-88.322 0 1.78920983282e-11)
(-88.322 0 -1.38348740496e-11)
(-88.322 0 -1.043217262e-11)
(-88.322 0 2.50963599213e-14)
(-88.322 0 -8.12069778239e-12)
(-88.322 0 -7.62789215333e-13)
(-88.322 0 -6.56010057989e-12)
(-88.322 0 -6.02231434126e-13)
(-88.322 0 -5.5292020566e-12)
(-88.322 0 -1.72151261058e-11)
(-88.322 0 2.23679013003e-12)
(-88.322 0 5.91797804069e-13)
(-88.322 0 -4.45908962996e-13)
(-88.322 0 5.56289013694e-12)
(-88.322 0 -1.72476500428e-11)
(-88.322 0 4.02683827403e-12)
(-88.322 0 -5.17138248088e-12)
(-88.322 0 -1.14503540158e-11)
(-88.322 0 -6.71369749523e-12)
(-88.322 0 -6.51849167648e-12)
(-88.322 0 -1.39739742187e-12)
(-88.322 0 -3.92226071387e-13)
(-88.322 0 1.98395733363e-13)
(-88.322 0 4.22892629522e-12)
(-88.322 0 2.74012169634e-13)
(-88.322 0 2.4645672095e-12)
(-88.322 0 5.07464195139e-12)
(-88.322 0 -7.60197086254e-13)
(-88.322 0 1.07575615069e-12)
(-88.322 0 4.81480561784e-12)
(-88.322 0 -4.32575108598e-12)
(-88.322 0 -6.60998560908e-14)
(-88.322 0 7.88549039105e-14)
(-88.322 0 2.85995384392e-12)
(-88.322 0 2.21459829459e-13)
(-88.322 0 6.0822887069e-12)
(-88.322 0 1.44016162369e-14)
(-88.322 0 3.59618549807e-12)
(-88.322 0 3.76726714644e-12)
(-88.322 0 6.13284679763e-12)
(-88.322 0 1.73103185365e-13)
(-88.322 0 -4.32921942771e-12)
(-88.322 0 3.57432562979e-13)
(-88.322 0 -3.40975751965e-12)
(-88.322 0 4.47780362008e-12)
(-88.322 0 -4.68086872375e-14)
(-88.322 0 -1.57947708211e-12)
(-88.322 0 -1.37117018118e-11)
(-88.322 0 1.47106882038e-12)
(-88.322 0 -1.83714090404e-13)
(-88.322 0 -2.64161147593e-12)
(-88.322 0 1.60233340704e-11)
(-88.322 0 -5.79287440889e-12)
(-88.322 0 -6.93151782415e-12)
(-88.322 0 -1.26206547531e-12)
(-88.322 0 5.68793081918e-13)
(-88.322 0 3.42661379217e-12)
(-88.322 0 -1.58633086787e-12)
(-88.322 0 -9.27538646537e-14)
(-88.322 0 -1.52867726132e-12)
(-88.322 0 5.11567993418e-12)
(-88.322 0 6.50249514998e-12)
(-88.322 0 1.39638768842e-13)
(-88.322 0 1.4967814461e-11)
(-88.322 0 -3.0013384514e-12)
(-88.322 0 1.54563835568e-13)
(-88.322 0 -2.04787456208e-12)
(-88.322 0 -1.44088352054e-12)
(-88.322 0 2.1621215127e-13)
(-88.322 0 -3.3664895332e-13)
(-88.322 0 1.41905990706e-11)
(-88.322 0 1.14918313743e-11)
(-88.322 0 1.1440578392e-11)
(-88.322 0 1.55511061711e-12)
(-88.322 0 1.31366917791e-11)
(-88.322 0 3.55958179003e-12)
(-88.322 0 -2.10146731068e-12)
(-88.322 0 7.33883419309e-13)
(-88.322 0 2.46984792109e-13)
(-88.322 0 5.72140718577e-12)
(-88.322 0 1.39993824095e-11)
(-88.322 0 -2.12062192887e-11)
(-88.322 0 3.15988608111e-12)
(-88.322 0 1.46631259097e-11)
(-88.322 0 1.2382882332e-11)
(-88.322 0 7.28748965634e-12)
(-88.322 0 -1.44922906962e-11)
(-88.322 0 2.70718766511e-11)
(-88.322 0 6.74202818261e-12)
(-88.322 0 6.0799727945e-12)
(-88.322 0 -5.89682593917e-12)
(-88.322 0 -2.01198098902e-12)
(-88.322 0 2.5436398553e-12)
(-88.322 0 -2.62026724825e-13)
(-88.322 0 -2.81046693068e-12)
(-88.322 0 -2.68669455495e-15)
(-88.322 0 -8.9358418325e-13)
(-88.322 0 4.85660045296e-12)
(-88.322 0 2.89703611912e-12)
(-88.322 0 4.93441711264e-13)
(-88.322 0 1.59934383008e-12)
(-88.322 0 -9.54655028524e-12)
(-88.322 0 -1.2108924267e-11)
(-88.322 0 -1.32165198135e-12)
(-88.322 0 1.51874129973e-13)
(-88.322 0 1.05858193116e-13)
(-88.322 0 2.27056665967e-12)
(-88.322 0 8.51035270789e-13)
(-88.322 0 -2.83828536487e-13)
(-88.322 0 2.03189083251e-12)
(-88.322 0 2.71035944762e-14)
(-88.322 0 -5.57114951381e-13)
(-88.322 0 1.24012760227e-12)
(-88.322 0 -5.38758418761e-12)
(-88.322 0 -2.40065798517e-13)
(-88.322 0 1.59394672903e-13)
(-88.322 0 3.39598737496e-13)
(-88.322 0 1.72816205023e-12)
(-88.322 0 3.73452613228e-12)
(-88.322 0 5.25286150617e-12)
(-88.322 0 4.31226284992e-13)
(-88.322 0 4.47759689336e-12)
(-88.322 0 -5.92360859144e-12)
(-88.322 0 -8.13455383582e-12)
(-88.322 0 -3.07689375415e-11)
(-88.322 0 -7.95695018066e-12)
(-88.322 0 6.51458456977e-12)
(-88.322 0 -1.75645574886e-11)
(-88.322 0 -1.65976368851e-11)
(-88.322 0 7.49747253038e-12)
(-88.322 0 3.00730294531e-12)
(-88.322 0 1.39212800774e-12)
(-88.322 0 4.68285431646e-12)
(-88.322 0 9.52071095119e-14)
(-88.322 0 1.48581745898e-13)
(-88.322 0 1.32405215663e-13)
(-88.322 0 2.73629673457e-12)
(-88.322 0 1.10420167161e-11)
(-88.322 0 -8.48309056333e-13)
(-88.322 0 -2.59225958901e-12)
(-88.322 0 -2.82596927023e-13)
(-88.322 0 -2.31681181195e-13)
(-88.322 0 1.16535347622e-11)
(-88.322 0 -7.03810939371e-12)
(-88.322 0 -7.8525891331e-13)
(-88.322 0 -4.99818623556e-13)
(-88.322 0 -8.98525958591e-12)
(-88.322 0 5.72382288672e-12)
(-88.322 0 -1.67066882861e-11)
(-88.322 0 1.08182319873e-11)
(-88.322 0 1.36086183862e-12)
(-88.322 0 8.43136108394e-12)
(-88.322 0 4.68483812136e-12)
(-88.322 0 1.95581265622e-12)
(-88.322 0 -1.00456841645e-12)
(-88.322 0 -6.67792219958e-15)
(-88.322 0 7.90916657512e-13)
(-88.322 0 6.52099441531e-12)
(-88.322 0 -2.9446872389e-12)
(-88.322 0 9.69619059989e-12)
(-88.322 0 1.42059938596e-11)
(-88.322 0 -4.86503616387e-12)
(-88.322 0 3.69194249876e-13)
(-88.322 0 2.70879540052e-12)
(-88.322 0 -1.3423285109e-12)
(-88.322 0 5.96099121788e-12)
(-88.322 0 3.17545701592e-12)
(-88.322 0 -1.273492184e-12)
(-88.322 0 1.49018780479e-11)
(-88.322 0 1.55346188451e-11)
(-88.322 0 6.56435762591e-12)
(-88.322 0 1.81364077171e-12)
(-88.322 0 -1.32327671973e-12)
(-88.322 0 1.39565290056e-12)
(-88.322 0 1.33048935559e-11)
(-88.322 0 1.68521853156e-11)
(-88.322 0 -3.35925146346e-12)
(-88.322 0 -7.82997970405e-12)
(-88.322 0 -1.01445415163e-11)
(-88.322 0 1.17850831488e-11)
(-88.322 0 4.05922247994e-12)
(-88.322 0 -1.44833066937e-12)
(-88.322 0 1.36051950219e-11)
(-88.322 0 7.73819708799e-12)
(-88.322 0 -1.34633404099e-12)
(-88.322 0 -3.05104686428e-12)
(-88.322 0 2.53503035092e-13)
(-88.322 0 1.15306836706e-13)
(-88.322 0 3.19855065785e-13)
(-88.322 0 -5.08295453979e-13)
(-88.322 0 2.08141180814e-12)
(-88.322 0 7.1255641102e-13)
(-88.322 0 6.03036040477e-15)
(-88.322 0 4.7939500255e-12)
(-88.322 0 1.42609272738e-12)
(-88.322 0 -2.4087357587e-12)
(-88.322 0 1.46732308659e-13)
(-88.322 0 1.62072146148e-13)
(-88.322 0 -1.89643863253e-13)
(-88.322 0 -2.73186015528e-14)
(-88.322 0 -6.57349839066e-13)
(-88.322 0 4.66613034151e-12)
(-88.322 0 -2.40273597917e-12)
(-88.322 0 -8.27453558094e-14)
(-88.322 0 2.55082890154e-13)
(-88.322 0 3.29082303838e-12)
(-88.322 0 8.42085114284e-12)
(-88.322 0 -6.94867331878e-12)
(-88.322 0 -6.68203179874e-12)
(-88.322 0 9.43564577723e-12)
(-88.322 0 1.64362653703e-12)
(-88.322 0 1.4560037403e-12)
(-88.322 0 6.48193614509e-12)
(-88.322 0 -4.47822704758e-12)
(-88.322 0 7.38319537526e-12)
(-88.322 0 -1.12678294744e-11)
(-88.322 0 7.40276083104e-12)
(-88.322 0 -4.58253998586e-12)
(-88.322 0 4.53401159348e-12)
(-88.322 0 9.47900616498e-13)
(-88.322 0 -3.36362688099e-12)
(-88.322 0 2.71369229255e-13)
(-88.322 0 2.81872395518e-13)
(-88.322 0 -6.78039165534e-14)
(-88.322 0 -2.83893367943e-12)
(-88.322 0 -3.48775474763e-12)
(-88.322 0 -1.3130006988e-13)
(-88.322 0 -9.04192924103e-13)
(-88.322 0 3.99341356559e-12)
(-88.322 0 -4.71887190673e-12)
(-88.322 0 -1.33778240504e-11)
(-88.322 0 -3.21545106092e-13)
(-88.322 0 -2.77886249003e-13)
(-88.322 0 -2.48043831342e-15)
(-88.322 0 -1.92499364239e-12)
(-88.322 0 -1.89968867385e-12)
(-88.322 0 5.57100931226e-13)
(-88.322 0 -2.53011200524e-13)
(-88.322 0 6.82151117065e-15)
(-88.322 0 -1.82828505895e-12)
(-88.322 0 -5.81686261199e-13)
(-88.322 0 5.66264099994e-12)
(-88.322 0 -2.44632689967e-12)
(-88.322 0 -7.92055018831e-14)
(-88.322 0 -2.55981657372e-12)
(-88.322 0 -1.01823785276e-12)
(-88.322 0 -4.83883145894e-12)
(-88.322 0 2.62512396172e-12)
(-88.322 0 -9.78607757806e-12)
(-88.322 0 -5.08827692941e-12)
(-88.322 0 1.25111100119e-11)
(-88.322 0 4.7853185029e-12)
(-88.322 0 -4.39148641804e-12)
(-88.322 0 5.27208078644e-13)
(-88.322 0 -5.71922380537e-12)
(-88.322 0 2.50926193628e-11)
(-88.322 0 2.09501361687e-12)
(-88.322 0 -3.59338739503e-13)
(-88.322 0 3.37860859291e-12)
(-88.322 0 3.60777828444e-13)
(-88.322 0 1.01641419755e-14)
(-88.322 0 1.5526489037e-12)
(-88.322 0 6.0075236422e-12)
(-88.322 0 -1.36774140641e-13)
(-88.322 0 -6.38481627241e-15)
(-88.322 0 -3.636771777e-15)
(-88.322 0 3.47637085216e-13)
(-88.322 0 4.73255510764e-14)
(-88.322 0 1.53639107539e-12)
(-88.322 0 1.68764653073e-13)
(-88.322 0 -8.50685613766e-14)
(-88.322 0 -2.52514106044e-12)
(-88.322 0 1.06248395674e-12)
(-88.322 0 5.02968209057e-12)
(-88.322 0 5.32256228384e-12)
(-88.322 0 -1.07355498634e-12)
(-88.322 0 1.76713204993e-11)
(-88.322 0 -5.50686399753e-12)
(-88.322 0 -6.51341590986e-14)
(-88.322 0 8.22818814739e-13)
(-88.322 0 1.92238570535e-12)
(-88.322 0 -3.86937306157e-12)
(-88.322 0 7.8920164955e-12)
(-88.322 0 6.20289864375e-13)
(-88.322 0 -8.57838621624e-13)
(-88.322 0 -3.91088029992e-12)
(-88.322 0 7.15874426573e-12)
(-88.322 0 -9.27058856128e-12)
(-88.322 0 -1.41951450824e-11)
(-88.322 0 4.89893511111e-12)
(-88.322 0 -3.66621880747e-13)
(-88.322 0 -5.30354248497e-12)
(-88.322 0 1.28744543756e-12)
(-88.322 0 -2.51803246543e-12)
(-88.322 0 5.20282498403e-12)
(-88.322 0 -4.51561315554e-12)
(-88.322 0 -1.44722402747e-11)
(-88.322 0 -1.14880480967e-11)
(-88.322 0 -4.44929462267e-12)
(-88.322 0 6.97155788161e-13)
(-88.322 0 1.05646545231e-12)
(-88.322 0 -1.04339104606e-12)
(-88.322 0 -9.3500720198e-12)
(-88.322 0 -3.06819078522e-12)
(-88.322 0 2.6238086077e-12)
(-88.322 0 7.14780082896e-12)
(-88.322 0 7.0443262504e-12)
(-88.322 0 -1.20058963574e-11)
(-88.322 0 -7.12285182181e-12)
(-88.322 0 2.02032778016e-12)
(-88.322 0 -1.36440607737e-11)
(-88.322 0 -7.7210579659e-12)
(-88.322 0 -1.82841566282e-12)
(-88.322 0 5.16969620437e-12)
(-88.322 0 -6.21552054715e-14)
(-88.322 0 -6.03205505574e-13)
(-88.322 0 -7.15334377726e-13)
(-88.322 0 1.2455270557e-13)
(-88.322 0 5.62444115841e-12)
(-88.322 0 -5.43660777707e-13)
(-88.322 0 2.39610359895e-12)
(-88.322 0 -4.67165955194e-12)
(-88.322 0 -1.77750066975e-12)
(-88.322 0 4.54630760343e-12)
(-88.322 0 1.7241685643e-14)
(-88.322 0 -7.32605232819e-13)
(-88.322 0 -5.83629219459e-12)
(-88.322 0 -1.02030032108e-12)
(-88.322 0 6.80751924404e-13)
(-88.322 0 -4.51595010974e-12)
(-88.322 0 2.04148588792e-12)
(-88.322 0 7.9594678806e-14)
(-88.322 0 -8.08932180441e-13)
(-88.322 0 -3.31945445339e-12)
(-88.322 0 -8.50966967228e-12)
(-88.322 0 6.40955497723e-12)
(-88.322 0 6.41901199527e-12)
(-88.322 0 -1.36063250087e-11)
(-88.322 0 -5.47486115865e-12)
(-88.322 0 -1.68653206954e-12)
(-88.322 0 -1.08641849746e-11)
(-88.322 0 4.17863938628e-12)
(-88.322 0 -7.51185231657e-12)
(-88.322 0 1.13099317178e-11)
(-88.322 0 -7.57332175768e-12)
(-88.322 0 4.66959900803e-12)
(-88.322 0 1.68492025461e-13)
(-88.322 0 1.28324221388e-13)
(-88.322 0 3.2638362158e-12)
(-88.322 0 3.99096417863e-14)
(-88.322 0 1.03995676672e-14)
(-88.322 0 2.39535817835e-12)
(-88.322 0 2.5945258671e-12)
(-88.322 0 -1.40638387082e-12)
(-88.322 0 -1.00650317112e-13)
(-88.322 0 -2.9288639413e-12)
(-88.322 0 -5.76667469099e-12)
(-88.322 0 1.19706831853e-11)
(-88.322 0 2.58911139612e-11)
(-88.322 0 7.47244533028e-13)
(-88.322 0 1.80032905787e-13)
(-88.322 0 -1.62454454136e-13)
(-88.322 0 -5.47757956322e-13)
(-88.322 0 2.38937627688e-12)
(-88.322 0 -5.72633945752e-14)
(-88.322 0 1.68764276693e-13)
(-88.322 0 -7.27870936954e-14)
(-88.322 0 1.91851200236e-12)
(-88.322 0 6.80004151434e-13)
(-88.322 0 2.16709443349e-13)
(-88.322 0 2.35803153843e-12)
(-88.322 0 -5.00196791364e-14)
(-88.322 0 2.49943844643e-12)
(-88.322 0 1.98276486769e-12)
(-88.322 0 -1.13798268017e-12)
(-88.322 0 4.231561708e-12)
(-88.322 0 2.48771580896e-12)
(-88.322 0 1.69185634106e-13)
(-88.322 0 -5.42397674646e-12)
(-88.322 0 9.73829566623e-12)
(-88.322 0 6.37778634081e-12)
(-88.322 0 4.18617027966e-12)
(-88.322 0 2.21295944197e-12)
(-88.322 0 -3.4479363874e-11)
(-88.322 0 3.16881880181e-12)
(-88.322 0 6.32577645831e-12)
(-88.322 0 -1.18274451886e-12)
(-88.322 0 -1.50249711519e-12)
(-88.322 0 5.8983788048e-12)
(-88.322 0 -1.79116825088e-12)
(-88.322 0 -5.96731280232e-12)
(-88.322 0 3.31146654059e-14)
(-88.322 0 1.05799007361e-12)
(-88.322 0 5.85342106032e-12)
(-88.322 0 1.0166974235e-13)
(-88.322 0 4.27833605056e-12)
(-88.322 0 -1.17401965401e-12)
(-88.322 0 -1.63349626925e-12)
(-88.322 0 5.87194036789e-12)
(-88.322 0 2.54843456015e-12)
(-88.322 0 3.98276831588e-12)
(-88.322 0 -4.65242728656e-12)
(-88.322 0 3.21805325817e-12)
(-88.322 0 -4.30223589845e-12)
(-88.322 0 -1.13677017199e-12)
(-88.322 0 -4.95159678967e-12)
(-88.322 0 4.27386249194e-12)
(-88.322 0 -2.5894660684e-11)
(-88.322 0 -1.2138213406e-11)
(-88.322 0 -7.74225487323e-13)
(-88.322 0 -4.33954555094e-12)
(-88.322 0 1.89915176778e-12)
(-88.322 0 -3.58515869312e-12)
(-88.322 0 -4.53006294842e-12)
(-88.322 0 2.73395395724e-12)
(-88.322 0 1.21274925039e-12)
(-88.322 0 -4.12562729793e-12)
(-88.322 0 -9.2206902647e-12)
(-88.322 0 -3.12157915947e-12)
(-88.322 0 -3.63526522195e-12)
(-88.322 0 2.09171135282e-12)
(-88.322 0 -3.32324770515e-12)
(-88.322 0 -2.92761219551e-12)
(-88.322 0 7.7652642677e-13)
(-88.322 0 -5.1785983442e-13)
(-88.322 0 -1.54905861486e-12)
(-88.322 0 -2.28805026356e-12)
(-88.322 0 -9.37319069099e-13)
(-88.322 0 8.49201923795e-13)
(-88.322 0 -6.06524546762e-12)
(-88.322 0 -2.52013981706e-12)
(-88.322 0 6.88853503965e-13)
(-88.322 0 1.80157703986e-12)
(-88.322 0 -9.79977771607e-12)
(-88.322 0 -1.67503720784e-11)
(-88.322 0 -7.27116737295e-12)
(-88.322 0 -4.36057780993e-13)
(-88.322 0 -6.25203702911e-12)
(-88.322 0 8.70538717963e-15)
(-88.322 0 -8.43379428656e-12)
(-88.322 0 -1.33199746321e-11)
(-88.322 0 -6.24466590904e-12)
(-88.322 0 8.07034472467e-13)
(-88.322 0 -1.48752261095e-11)
(-88.322 0 -1.18036686051e-11)
(-88.322 0 -2.16094361267e-11)
(-88.322 0 4.25920832472e-12)
(-88.322 0 2.56226708041e-11)
(-88.322 0 -1.17639160079e-11)
(-88.322 0 -1.38490550131e-11)
(-88.322 0 1.62850641137e-12)
(-88.322 0 1.50892135726e-12)
(-88.322 0 -1.17107097075e-11)
(-88.322 0 -1.85812145454e-11)
(-88.322 0 1.96784352712e-11)
(-88.322 0 -1.06499714012e-11)
(-88.322 0 6.56452172759e-13)
(-88.322 0 -1.64318599364e-11)
(-88.322 0 1.56974123235e-11)
(-88.322 0 3.38338052677e-13)
(-88.322 0 2.08980912829e-12)
(-88.322 0 1.28194774895e-12)
(-88.322 0 -1.03703087327e-11)
(-88.322 0 -2.32992497593e-11)
(-88.322 0 -1.79851562138e-11)
(-88.322 0 1.0963474678e-11)
(-88.322 0 8.29302938875e-12)
(-88.322 0 2.39609492339e-11)
(-88.322 0 -1.32866977469e-12)
(-88.322 0 -9.68113784625e-12)
(-88.322 0 8.09889164236e-12)
(-88.322 0 -1.52844757543e-12)
(-88.322 0 -3.02462545856e-12)
(-88.322 0 -1.02616390138e-12)
(-88.322 0 -7.9079132643e-13)
(-88.322 0 -3.00540749561e-13)
(-88.322 0 -3.87099587559e-13)
(-88.322 0 -7.76378189506e-12)
(-88.322 0 1.20954484515e-12)
(-88.322 0 -7.25438251854e-12)
(-88.322 0 4.09787520071e-12)
(-88.322 0 5.09499681798e-13)
(-88.322 0 -3.83502420368e-12)
(-88.322 0 -9.83779059083e-12)
(-88.322 0 -1.45415713532e-11)
(-88.322 0 -1.4592804011e-11)
(-88.322 0 -1.65002097922e-11)
(-88.322 0 -5.87397507818e-12)
(-88.322 0 1.78638794256e-13)
(-88.322 0 1.43808795807e-12)
(-88.322 0 -6.93259502372e-13)
(-88.322 0 -7.4450802458e-12)
(-88.322 0 -3.19142267926e-12)
(-88.322 0 5.25533394641e-12)
(-88.322 0 5.11747667822e-12)
(-88.322 0 1.42607747458e-11)
(-88.322 0 -6.68488475916e-12)
(-88.322 0 -6.07921170629e-13)
(-88.322 0 1.42014949894e-13)
(-88.322 0 5.03525223233e-12)
(-88.322 0 9.52959502477e-12)
(-88.322 0 1.77395037128e-12)
(-88.322 0 2.9167937169e-12)
(-88.322 0 7.44344242822e-13)
(-88.322 0 -2.00285443262e-12)
(-88.322 0 -5.8186974645e-13)
(-88.322 0 5.8523317225e-13)
(-88.322 0 -1.42357754919e-11)
(-88.322 0 9.47696439756e-12)
(-88.322 0 6.03158618035e-12)
(-88.3219999999 0 9.31947270195e-12)
(-88.322 0 2.24519840284e-11)
(-88.3220000001 0 -9.77886519626e-12)
(-88.322 0 4.86181914989e-12)
(-88.322 0 5.64696750158e-13)
(-88.322 0 -2.75406469355e-13)
(-88.322 0 3.39123745933e-13)
(-88.3219999999 0 -3.61896561545e-12)
(-88.322 0 3.44307288969e-12)
(-88.322 0 -2.60554072198e-12)
(-88.322 0 9.04571091911e-13)
(-88.322 0 5.12199079178e-12)
(-88.322 0 3.54384910592e-12)
(-88.322 0 2.24377743659e-12)
(-88.322 0 -4.12590732465e-12)
(-88.322 0 -6.5152747566e-12)
(-88.322 0 4.81889178734e-12)
(-88.322 0 -1.81189493307e-12)
(-88.322 0 5.88659726386e-12)
(-88.322 0 1.14420572832e-11)
(-88.3219999999 0 7.23470913579e-12)
(-88.322 0 8.32166682584e-12)
(-88.3220000001 0 -2.79326062475e-12)
(-88.322 0 -1.26300143828e-13)
(-88.322 0 -6.0476099944e-12)
(-88.322 0 1.28285266998e-11)
(-88.322 0 6.27508098888e-12)
(-88.322 0 3.1870682795e-13)
(-88.322 0 -2.73073377288e-12)
(-88.322 0 -1.7655968053e-12)
(-88.322 0 3.19478582278e-12)
(-88.322 0 -1.51818519827e-12)
(-88.322 0 -9.89413637096e-14)
(-88.322 0 -2.43255769593e-12)
(-88.322 0 1.23588730516e-12)
(-88.322 0 4.85166131228e-12)
(-88.322 0 2.88702902171e-12)
(-88.322 0 6.75530592816e-13)
(-88.322 0 -8.29236517214e-12)
(-88.322 0 5.07249776236e-13)
(-88.322 0 -4.75287087695e-12)
(-88.322 0 -1.12130452949e-12)
(-88.322 0 -2.83771900706e-12)
(-88.322 0 -3.29767691823e-13)
(-88.322 0 -2.27914840602e-13)
(-88.322 0 1.33473551482e-12)
(-88.322 0 -7.36644166629e-13)
(-88.322 0 5.99758749241e-12)
(-88.322 0 2.17927973608e-13)
(-88.322 0 -5.49332824349e-13)
(-88.322 0 -2.43308566298e-12)
(-88.322 0 8.226416809e-12)
(-88.322 0 1.65302993033e-11)
(-88.322 0 5.03002544323e-12)
(-88.322 0 5.0711663181e-13)
(-88.322 0 6.32340451153e-12)
(-88.322 0 1.84833896188e-12)
(-88.322 0 8.55110374717e-12)
(-88.322 0 1.33124401631e-11)
(-88.322 0 5.81916088238e-12)
(-88.322 0 -7.09485338388e-13)
(-88.322 0 1.72658443463e-11)
(-88.322 0 1.22987528387e-11)
(-88.322 0 2.21347904397e-11)
(-88.322 0 -4.05255321448e-12)
(-88.322 0 -2.34935963966e-11)
(-88.322 0 1.1502937125e-11)
(-88.322 0 1.33242168111e-11)
(-88.322 0 -1.58089565834e-12)
(-88.322 0 -2.23849437869e-12)
(-88.322 0 1.11607768393e-11)
(-88.322 0 1.81860002049e-11)
(-88.322 0 -1.98217004614e-11)
(-88.322 0 1.13178264766e-11)
(-88.322 0 -4.68162901136e-13)
(-88.322 0 1.59826781611e-11)
(-88.322 0 -1.57025118021e-11)
(-88.322 0 -3.67130087846e-13)
(-88.322 0 -2.17367684926e-12)
(-88.322 0 -2.10492614881e-12)
(-88.322 0 8.60453107676e-12)
(-88.322 0 2.2154594144e-11)
(-88.322 0 1.38213976695e-11)
(-88.322 0 -8.64972547016e-12)
(-88.322 0 -2.64443225586e-12)
(-88.322 0 -3.05371453282e-11)
(-88.322 0 1.12169761135e-11)
(-88.322 0 5.35229790368e-12)
(-88.322 0 -3.05473491783e-13)
(-88.322 0 -9.0325472167e-12)
(-88.322 0 2.74547523141e-12)
(-88.322 0 -1.89030455058e-12)
(-88.322 0 5.9660854364e-13)
(-88.322 0 5.80270065572e-12)
(-88.322 0 -2.75941644081e-12)
(-88.322 0 7.44298747889e-12)
(-88.322 0 -1.07244551218e-12)
(-88.322 0 6.17685587632e-12)
(-88.322 0 -5.48452226875e-12)
(-88.322 0 -5.35938429228e-12)
(-88.322 0 8.52750058081e-13)
(-88.322 0 6.17980650735e-12)
(-88.322 0 1.48068955432e-11)
(-88.322 0 7.20273142028e-12)
(-88.322 0 3.49319456781e-12)
(-88.322 0 -2.1844534556e-12)
(-88.322 0 -1.49289810778e-13)
(-88.322 0 -1.43600450656e-12)
(-88.322 0 8.91032515021e-13)
(-88.322 0 6.02545259773e-12)
(-88.322 0 3.3640858764e-12)
(-88.322 0 -7.20202777786e-12)
(-88.322 0 -5.18865004265e-12)
(-88.322 0 -1.3721249067e-11)
(-88.322 0 5.16301188371e-12)
(-88.322 0 -1.34909648202e-14)
(-88.322 0 -3.22969516213e-13)
(-88.322 0 -5.04726675249e-12)
(-88.322 0 -1.00952160701e-11)
(-88.322 0 -4.53015713752e-12)
(-88.322 0 -2.99008760627e-12)
(-88.322 0 -3.47166045643e-13)
(-88.322 0 1.81327718863e-12)
(-88.322 0 3.50964284441e-13)
(-88.322 0 -2.97213700889e-12)
(-88.322 0 8.79710025949e-12)
(-88.322 0 -1.23863319488e-11)
(-88.322 0 -1.42145318518e-11)
(-88.322 0 -1.32057309748e-11)
(-88.322 0 9.87879098187e-12)
(-88.322 0 -4.85509719123e-12)
(-88.322 0 -1.87661547877e-11)
(-88.322 0 8.33217196809e-12)
(-88.322 0 3.8369849553e-12)
(-88.322 0 -2.31591452202e-12)
(-88.322 0 3.23610764233e-12)
(-88.322 0 -1.05285402032e-11)
(-88.322 0 -9.15932997379e-12)
(-88.322 0 -4.77089072825e-12)
(-88.322 0 -9.34083198482e-12)
(-88.322 0 -3.7166394254e-12)
(-88.322 0 -2.01188811726e-12)
(-88.322 0 4.43511704663e-12)
(-88.322 0 7.00014892986e-12)
(-88.322 0 -6.66809021296e-12)
(-88.322 0 1.43165440058e-12)
(-88.322 0 -9.06875591392e-12)
(-88.322 0 1.11349652633e-11)
(-88.322 0 -7.33236657322e-12)
(-88.322 0 -1.68782585698e-11)
(-88.322 0 -8.8564953763e-12)
(-88.322 0 -5.24967883687e-12)
(-88.322 0 9.34062252935e-13)
(-88.322 0 3.77226669611e-13)
(-88.322 0 -9.35148485623e-13)
(-88.322 0 2.22579709592e-13)
(-88.322 0 8.1538884049e-14)
(-88.322 0 -4.22884462076e-12)
(-88.322 0 -7.63275310107e-13)
(-88.322 0 -8.80984486276e-13)
(-88.322 0 -2.47907939342e-12)
(-88.322 0 -1.12753935833e-12)
(-88.322 0 2.68762477812e-12)
(-88.322 0 6.0881065067e-14)
(-88.322 0 1.40681435545e-15)
(-88.322 0 2.44802512624e-12)
(-88.322 0 1.0883728224e-11)
(-88.322 0 -9.30740153659e-12)
(-88.322 0 -1.83679255494e-11)
(-88.322 0 1.50804834385e-13)
(-88.322 0 2.6181376902e-12)
(-88.322 0 3.16851929743e-13)
(-88.322 0 4.55680070153e-13)
(-88.322 0 -2.29269507508e-12)
(-88.322 0 1.17548461908e-13)
(-88.322 0 -3.38761950655e-13)
(-88.322 0 -2.32217240414e-13)
(-88.322 0 -2.16411303339e-12)
(-88.322 0 -5.56576163407e-13)
(-88.322 0 1.97049647921e-12)
(-88.322 0 2.80737139334e-14)
(-88.322 0 -2.45359300972e-13)
(-88.322 0 -2.57061378686e-12)
(-88.322 0 -8.57763157434e-13)
(-88.322 0 -6.44723014503e-12)
(-88.322 0 -1.62424249641e-13)
(-88.322 0 1.23113898914e-15)
(-88.322 0 3.08870227213e-13)
(-88.322 0 -3.64928641209e-15)
(-88.322 0 -4.14903437031e-14)
(-88.322 0 -7.08689671062e-14)
(-88.322 0 -1.49747112482e-13)
(-88.322 0 -5.13867439997e-12)
(-88.322 0 -1.34506262934e-13)
(-88.322 0 3.54526438882e-14)
(-88.322 0 -7.01587380409e-14)
(-88.322 0 1.74009884792e-14)
(-88.322 0 7.27033020973e-13)
(-88.322 0 1.11565619478e-14)
(-88.322 0 2.45625589824e-14)
(-88.322 0 5.81274689666e-14)
(-88.322 0 -7.76709347452e-13)
(-88.322 0 -2.30069522023e-13)
(-88.322 0 -7.64269706074e-14)
(-88.322 0 3.08714405892e-14)
(-88.322 0 -1.93879926089e-14)
(-88.322 0 8.67825018143e-14)
(-88.322 0 8.12689770199e-13)
(-88.322 0 1.27123719731e-12)
(-88.322 0 -8.43329266611e-14)
(-88.322 0 -7.08874473643e-13)
(-88.322 0 -5.66242072354e-13)
(-88.322 0 -7.25291981175e-13)
(-88.322 0 2.95503467794e-14)
(-88.322 0 -3.91820992409e-15)
(-88.322 0 8.84407756496e-13)
(-88.322 0 9.67475557054e-12)
(-88.322 0 1.2833303903e-11)
(-88.322 0 5.83973494247e-12)
(-88.322 0 -1.22909723606e-12)
(-88.322 0 8.0184294877e-12)
(-88.322 0 -4.85911542414e-12)
(-88.322 0 1.79817616425e-12)
(-88.322 0 7.16535406315e-12)
(-88.322 0 -5.65095054296e-14)
(-88.322 0 9.22995833998e-13)
(-88.322 0 1.51805995783e-12)
(-88.322 0 4.95524598199e-12)
(-88.322 0 3.09961832726e-12)
(-88.322 0 1.00192950483e-11)
(-88.322 0 6.18199224012e-12)
(-88.322 0 3.98951539791e-12)
(-88.322 0 9.59735838638e-12)
(-88.322 0 1.68553497305e-11)
(-88.322 0 3.09938111376e-13)
(-88.322 0 -5.33611902107e-13)
(-88.322 0 -4.23786475571e-12)
(-88.322 0 -1.82151953431e-12)
(-88.322 0 -6.44879710908e-13)
(-88.322 0 1.77905549554e-12)
(-88.322 0 1.22642671151e-13)
(-88.322 0 -6.95682025213e-12)
(-88.322 0 4.40977444009e-13)
(-88.322 0 -5.25068490061e-12)
(-88.322 0 -1.64433686019e-12)
(-88.322 0 4.04594765134e-13)
(-88.322 0 3.51785987853e-12)
(-88.322 0 8.35441376798e-13)
(-88.322 0 2.72748097395e-13)
(-88.322 0 5.24949102325e-12)
(-88.322 0 -1.46376554281e-12)
(-88.322 0 4.60488136499e-13)
(-88.322 0 2.20327095022e-12)
(-88.322 0 -1.05821194962e-11)
(-88.322 0 7.33014103826e-12)
(-88.322 0 9.66595420646e-12)
(-88.322 0 6.39943044925e-12)
(-88.322 0 -1.64525188702e-11)
(-88.322 0 7.53247794073e-12)
(-88.322 0 1.36671075563e-11)
(-88.322 0 -8.31167478362e-12)
(-88.322 0 -3.06079811739e-12)
(-88.322 0 1.8055853928e-12)
(-88.322 0 -6.2555777299e-13)
(-88.322 0 1.28982738664e-11)
(-88.322 0 1.21925528926e-11)
(-88.322 0 2.98166582142e-12)
(-88.322 0 3.91770049376e-12)
(-88.322 0 3.34847090513e-12)
(-88.322 0 3.86335442058e-13)
(-88.322 0 4.6261458942e-13)
(-88.322 0 1.07674603009e-13)
(-88.322 0 1.7447292629e-12)
(-88.322 0 -1.49807897852e-12)
(-88.322 0 4.38764630697e-12)
(-88.322 0 -1.1924155748e-11)
(-88.322 0 5.11706491849e-14)
(-88.322 0 1.47898229463e-11)
(-88.322 0 8.46057043044e-12)
(-88.322 0 6.91726911229e-12)
(-88.322 0 8.04859748811e-12)
(-88.322 0 -1.38697361533e-11)
(-88.322 0 -5.60660102856e-12)
(-88.322 0 2.064970885e-12)
(-88.322 0 2.87113137969e-12)
(-88.322 0 5.77435632456e-12)
(-88.322 0 1.57310892065e-12)
(-88.322 0 -3.88614940498e-12)