/*--------------------------------*- C++ -*----------------------------------*\
  =========                 |
  \\      /  F ield         | OpenFOAM: The Open Source CFD Toolbox
   \\    /   O peration     | Website:  https://openfoam.org
    \\  /    A nd           | Version:  6
     \\/     M anipulation  |
\*---------------------------------------------------------------------------*/
FoamFile
{
    version     2.0;
    format      ascii;
    class       volScalarField;
    location    "3e-05";
    object      p;
}
// * * * * * * * * * * * * * * * * * * * * * * * * * * * * * * * * * * * * * //

dimensions      [1 -1 -2 0 0 0 0];

internalField   nonuniform List<scalar> 
8192
(
6000000.00237
5999999.99984
6000000.00054
6000000.00045
6000000.00087
5999999.99953
6000000.00002
5999999.99997
6000000.00001
6000000
6000000
6000000.00004
6000000.00023
6000000.00011
6000000.00006
6000000.00005
6000000.00002
5999999.9999
5999999.99986
6000000.00005
5999999.99994
5999999.99991
5999999.99984
6000000
5999999.99995
5999999.99996
5999999.99966
5999999.99965
5999999.99929
6000000.00022
5999999.99934
5999999.99955
5999999.9995
5999999.99737
6000000.00297
6000000.00383
5999999.99968
6000000.0041
5999999.99773
5999999.9993
5999999.99977
5999999.99996
6000000
6000000.00002
6000000.00017
6000000.00005
6000000
6000000
5999999.99996
6000000.00001
6000000.00021
5999999.99937
6000000.00087
5999999.99851
5999999.99905
6000000.00244
6000000.00103
6000000.00115
6000000.00002
6000000.00159
5999999.99812
5999999.99672
5999999.99762
5999999.99882
6000000
6000000.00008
6000000.00002
6000000.0002
5999999.99996
6000000.00009
5999999.99999
5999999.99999
6000000.00056
6000000.00336
6000000.00329
5999999.99724
5999999.99392
6000000.00318
6000000.00383
5999999.99723
5999999.99936
5999999.9966
6000000.00313
6000000.00269
5999999.99793
5999999.99755
6000000.00264
6000000.00358
5999999.99902
5999999.99934
5999999.9993
5999999.99961
5999999.99963
6000000.00007
5999999.99987
6000000.00002
6000000.00007
6000000
6000000.00009
5999999.99999
6000000
5999999.99999
5999999.99998
6000000
5999999.99987
6000000.00002
6000000.00007
6000000
5999999.99999
5999999.99999
6000000
6000000
5999999.99999
6000000.00007
6000000
6000000.00011
6000000.00001
5999999.99987
6000000
6000000
5999999.99977
5999999.99977
6000000.00001
5999999.99995
6000000.00002
6000000.00001
6000000.00002
6000000.00002
6000000.00305
6000000.00014
6000000.0003
6000000.00034
6000000.00024
5999999.99995
6000000.00001
5999999.99997
6000000.00007
6000000.00009
6000000
6000000.00019
6000000.00044
6000000.00087
6000000.00147
5999999.99878
6000000.00026
5999999.99855
6000000.00136
6000000.00143
5999999.99982
5999999.99846
5999999.99903
6000000.00059
5999999.99698
6000000.0033
5999999.99734
5999999.99747
5999999.99925
5999999.99951
5999999.99904
5999999.99986
6000000
5999999.99996
6000000.00035
6000000.00031
5999999.9998
6000000.00138
6000000.00009
6000000
5999999.99979
5999999.99998
6000000.00026
6000000.00012
6000000.00343
6000000.00196
6000000.00186
6000000.00097
6000000.00209
6000000.0012
5999999.99699
5999999.99978
6000000.00074
5999999.99868
6000000.00111
5999999.99826
6000000.00139
6000000.00251
6000000.00323
5999999.99695
5999999.99638
6000000.00359
6000000.00368
6000000.00145
5999999.99996
5999999.99997
6000000.00007
5999999.99999
5999999.99994
6000000
5999999.99999
6000000
6000000.00009
6000000
6000000.00001
5999999.99994
5999999.99988
6000000.00007
6000000.00001
5999999.99999
6000000
5999999.99997
6000000
6000000.00006
6000000
5999999.99994
5999999.99997
6000000
5999999.99995
6000000
5999999.99996
6000000.0003
5999999.99877
6000000.00072
5999999.99892
6000000.00033
6000000.00288
5999999.99727
5999999.99781
6000000.00115
6000000.00374
5999999.99553
5999999.99686
6000000.00284
6000000.00221
5999999.99921
6000000.0014
6000000.0004
6000000.00175
5999999.99937
6000000.00307
6000000.00413
5999999.99692
6000000.00045
6000000.00141
5999999.99925
6000000.00355
5999999.99691
6000000.00065
6000000.00249
6000000.00184
6000000.00171
6000000.00121
6000000.0008
6000000.00142
5999999.99934
5999999.9999
5999999.99996
5999999.99902
5999999.99949
5999999.99996
5999999.99987
6000000.00011
5999999.99995
6000000.00001
5999999.9999
6000000.00001
5999999.99994
6000000.00001
6000000.00009
6000000.00009
5999999.99994
6000000.00001
6000000.00006
6000000
6000000.00002
5999999.99989
5999999.9981
6000000.00268
6000000.00266
5999999.99679
5999999.99809
5999999.99808
5999999.99829
5999999.99923
5999999.99808
6000000.00034
6000000.00017
5999999.99947
6000000.00035
6000000.0003
6000000.00011
6000000.00001
5999999.99996
6000000.00007
6000000.00017
6000000.00001
5999999.9999
6000000
6000000.00004
6000000
6000000
6000000
6000000.00001
5999999.99993
6000000.00013
5999999.99965
5999999.99929
6000000.00037
5999999.99842
6000000.00172
5999999.99644
5999999.99732
6000000.00231
6000000.00132
5999999.99966
6000000.00201
5999999.99941
6000000.00206
5999999.99628
5999999.99856
5999999.99817
6000000.00244
6000000.00015
5999999.99992
5999999.99999
6000000
6000000.00007
6000000.00001
5999999.99987
6000000.00001
5999999.99999
5999999.99996
6000000.00019
6000000.00019
6000000.0001
6000000.00002
6000000
5999999.99992
5999999.99965
5999999.99998
6000000
6000000
5999999.99995
5999999.99993
6000000.00014
5999999.99979
6000000.00024
5999999.9987
5999999.99806
5999999.99705
6000000.00103
5999999.9969
5999999.99803
6000000.0029
6000000.00064
6000000.0017
6000000.00161
5999999.99842
6000000.00139
5999999.99974
6000000.00056
6000000.00039
6000000.00001
6000000.00017
6000000.00001
6000000.00017
6000000
6000000.00007
6000000.00017
5999999.99996
6000000.00017
6000000.00037
5999999.99943
6000000.00076
5999999.9995
6000000.00026
6000000.00336
6000000.00158
6000000.00014
6000000.0035
5999999.99597
5999999.99807
5999999.99689
5999999.99928
5999999.99935
5999999.99933
6000000.00101
5999999.99799
5999999.99604
6000000.00231
5999999.99611
5999999.99743
6000000.00213
6000000.00075
5999999.99927
6000000.00029
5999999.99983
5999999.99932
6000000.00199
5999999.99673
5999999.99708
5999999.99775
5999999.99922
6000000.00234
6000000.00029
5999999.99668
5999999.99625
6000000.0008
6000000.00166
6000000.00062
5999999.99815
5999999.99871
6000000.00033
5999999.99753
5999999.9983
5999999.99885
6000000.00336
5999999.99958
5999999.9997
5999999.99926
5999999.99985
6000000.00015
5999999.99997
6000000.00001
5999999.99987
5999999.99996
6000000.00011
5999999.99999
5999999.99999
6000000.00001
6000000.00001
6000000.00002
5999999.99987
6000000.00001
5999999.99999
5999999.99999
5999999.99992
5999999.99976
6000000
5999999.99987
6000000.00001
6000000.00003
5999999.99995
5999999.99999
5999999.99998
6000000
5999999.99992
5999999.99972
5999999.9999
5999999.99983
6000000.00004
6000000.00008
5999999.99999
6000000
6000000
6000000.00015
5999999.99962
6000000.00069
6000000.00151
5999999.99619
6000000.00383
6000000.00354
6000000.00051
6000000.00092
6000000.00069
6000000.00013
5999999.99999
6000000
6000000.00002
6000000
6000000
5999999.99992
5999999.99983
6000000.00022
5999999.99998
6000000.00002
5999999.9999
5999999.99983
6000000.00033
5999999.99956
6000000.00082
5999999.99726
5999999.99896
6000000.00379
6000000.00285
6000000.0004
5999999.99774
6000000.00039
6000000.00265
5999999.99988
5999999.99994
6000000.00017
5999999.99997
6000000
6000000.00001
6000000.00007
6000000.00017
5999999.99995
6000000.00013
5999999.99997
5999999.99996
6000000.00017
6000000.00001
6000000.00026
6000000.00038
6000000.00084
6000000.00016
6000000.0007
5999999.99951
5999999.99958
5999999.99581
5999999.99797
6000000.00064
5999999.99932
5999999.99945
5999999.99991
5999999.9998
6000000.00001
5999999.99994
6000000.00001
5999999.9999
6000000.00001
6000000
6000000.00001
5999999.99999
5999999.99986
6000000.00009
6000000
5999999.99996
5999999.99995
5999999.99995
6000000
6000000
5999999.99994
5999999.99995
5999999.99992
6000000.00001
5999999.99995
5999999.99994
5999999.99995
5999999.99994
5999999.99999
6000000
5999999.99995
5999999.99999
6000000
6000000.00003
5999999.99998
6000000.00016
5999999.9996
6000000.00001
5999999.99995
6000000
6000000.00001
5999999.99999
6000000
6000000.00001
6000000.00017
6000000.00005
6000000
6000000
5999999.99996
5999999.99992
6000000.00021
5999999.99964
5999999.99996
5999999.99788
5999999.99697
6000000.00255
6000000.00163
5999999.99975
6000000.00358
5999999.99896
6000000.00303
5999999.99667
5999999.99995
5999999.99947
6000000.00103
6000000.00063
6000000.00047
6000000.00026
6000000.00026
5999999.99994
6000000.00001
6000000
6000000.00001
6000000.00009
6000000.00001
6000000.00002
5999999.99982
6000000.00016
6000000.00001
6000000
6000000.00001
5999999.99994
6000000
6000000
5999999.99997
5999999.9999
5999999.99992
5999999.99992
5999999.99995
6000000
5999999.99995
5999999.99989
5999999.99974
6000000.00041
5999999.99929
6000000.00032
5999999.99959
5999999.99727
6000000.00262
6000000.00277
6000000.00083
6000000.00331
5999999.99871
5999999.99996
6000000.00006
6000000.00001
6000000.00001
6000000.00002
6000000.00017
6000000
6000000.00007
6000000.00015
5999999.99991
6000000.00001
6000000.00002
5999999.99979
6000000.00092
5999999.99873
5999999.99955
6000000.00256
6000000.00219
6000000.00207
6000000.00049
5999999.99928
5999999.99845
6000000.00351
6000000.00203
6000000.0016
5999999.99909
5999999.99837
6000000.00044
5999999.99971
5999999.99992
5999999.9999
6000000.00013
6000000.00013
6000000.00009
6000000.00009
5999999.99995
6000000.00009
5999999.99995
6000000.00007
6000000.0002
6000000.00006
6000000
5999999.99998
5999999.99952
6000000.00073
6000000.00037
5999999.99756
5999999.99762
6000000.00312
6000000.00278
6000000.00078
5999999.99967
6000000.00093
5999999.99949
6000000.00078
6000000.00351
6000000.00193
5999999.99929
6000000.00226
6000000.00272
6000000.00322
5999999.99573
5999999.99819
6000000.00219
6000000.00184
5999999.99678
5999999.99898
6000000.00177
6000000.00319
5999999.99768
6000000.00257
5999999.99945
6000000.00459
5999999.9953
6000000.00052
6000000.00009
5999999.99871
6000000.00203
6000000.00128
6000000.00127
6000000.00459
5999999.99672
5999999.99784
6000000.00406
6000000.0023
5999999.99876
5999999.99644
6000000.00103
5999999.99923
6000000.00001
6000000.00001
5999999.99988
6000000.0009
5999999.99967
6000000.0006
5999999.99968
5999999.99928
6000000.00101
6000000.00212
6000000.0007
6000000.00216
6000000.00239
6000000.00183
5999999.99888
5999999.99964
5999999.99925
6000000.0018
6000000.00397
5999999.99822
5999999.99783
5999999.99564
6000000.00299
6000000.00137
5999999.99811
5999999.99845
5999999.99852
5999999.9991
5999999.999
5999999.9993
5999999.99985
6000000.00002
5999999.99999
5999999.99998
6000000.00009
5999999.99872
5999999.99836
5999999.99869
6000000.00132
5999999.99982
6000000
6000000.00002
5999999.99978
6000000.00014
6000000.00007
6000000.00037
6000000.00162
5999999.99859
5999999.99879
5999999.99781
6000000.00315
6000000.00318
5999999.99746
5999999.99947
5999999.99894
6000000.0002
5999999.99787
5999999.99833
6000000.00191
6000000.00046
6000000.00096
6000000.00031
5999999.99997
6000000.00002
6000000
6000000
6000000
5999999.99997
5999999.99994
5999999.99997
6000000.00009
6000000
6000000
6000000.00007
6000000.00017
6000000.00007
6000000.00007
6000000.00009
6000000.00027
6000000.00021
6000000.00006
5999999.99992
6000000
6000000.00005
6000000
5999999.99988
5999999.99948
6000000.0001
5999999.99993
5999999.99999
5999999.99995
5999999.99994
5999999.99995
6000000
5999999.99995
6000000
5999999.99999
5999999.99995
6000000.00009
6000000.00023
5999999.99965
5999999.99976
5999999.99884
5999999.99965
6000000.00001
6000000.00001
6000000.00001
6000000.00002
6000000.00017
6000000.00002
5999999.99999
6000000.00001
5999999.99996
6000000
5999999.9996
6000000.00122
6000000.00153
5999999.99714
5999999.99815
6000000.00337
5999999.99922
6000000.00019
6000000.00068
5999999.99996
6000000
5999999.9999
6000000
5999999.99995
6000000.00001
5999999.99985
6000000.00009
6000000
6000000
5999999.99997
6000000.00003
5999999.99967
6000000.00166
6000000.00346
5999999.99955
6000000.00165
6000000.00333
6000000.00351
5999999.99886
5999999.99947
6000000.00006
5999999.99997
5999999.99999
6000000.00006
6000000
5999999.99994
5999999.99997
6000000.00001
5999999.99996
6000000
5999999.99996
5999999.99997
6000000
6000000.00004
5999999.99993
5999999.99906
6000000.00113
5999999.99802
6000000.00209
6000000.00139
6000000.0011
5999999.99816
6000000.00267
6000000.00262
5999999.99799
5999999.99806
6000000.00255
6000000.0001
6000000.00307
6000000.0033
6000000.00187
6000000.00265
6000000.0001
6000000.00029
6000000.00114
5999999.99974
6000000.001
5999999.99919
6000000.0017
5999999.99712
6000000.00043
6000000.00297
6000000.0027
6000000.00019
5999999.99981
6000000.00001
6000000.00001
6000000.00001
5999999.99948
6000000.00219
6000000.00023
6000000.00027
6000000.00006
6000000
5999999.99997
6000000.00037
5999999.99936
6000000.00117
5999999.99589
6000000.00374
6000000.0029
5999999.9997
6000000.00033
6000000.00033
6000000.00014
6000000.00004
6000000
6000000.00001
6000000
6000000
5999999.99995
6000000
5999999.99995
6000000
6000000.00001
5999999.99995
6000000.00011
6000000
5999999.99995
6000000
5999999.99999
5999999.99995
6000000.00001
6000000
6000000.00003
5999999.99989
5999999.99892
5999999.99972
6000000.00003
5999999.99994
6000000.00001
6000000.00002
6000000.00017
6000000.00005
6000000
6000000.00001
5999999.99995
5999999.99983
6000000.00004
5999999.9985
6000000.00213
5999999.9966
5999999.99801
6000000.00302
6000000.00207
6000000.00216
6000000.00111
5999999.9997
5999999.99812
5999999.99809
5999999.99902
5999999.9994
5999999.99665
6000000.00038
6000000.00031
5999999.99972
6000000
5999999.99958
6000000.00037
5999999.99911
6000000.00151
5999999.99761
5999999.9965
6000000.00183
5999999.99857
5999999.99806
5999999.99925
5999999.9998
6000000.00036
6000000.00004
6000000.00001
6000000.00009
5999999.99997
6000000.00031
5999999.99982
6000000.00014
6000000.00002
6000000.00006
5999999.99953
5999999.99929
5999999.99959
5999999.99952
5999999.9999
6000000
6000000.00001
6000000.00004
6000000.00013
5999999.99999
5999999.99999
6000000.00013
6000000
6000000.00001
5999999.99999
6000000
6000000.00001
6000000.00004
6000000.00001
6000000
6000000.00007
6000000.00002
5999999.99987
6000000
5999999.99999
6000000
6000000.00001
6000000
5999999.99996
5999999.99996
6000000.00134
5999999.99869
6000000.00215
5999999.99739
5999999.99729
6000000.0025
6000000.00189
5999999.99768
5999999.99992
5999999.99997
5999999.99998
6000000.0001
5999999.99999
6000000.00013
5999999.99992
5999999.99995
6000000.00001
5999999.99993
6000000.00011
5999999.99982
6000000.00042
6000000.00194
5999999.9984
5999999.99833
5999999.99894
5999999.9999
6000000.00168
6000000.00182
5999999.99629
5999999.99672
6000000.00235
6000000.00233
5999999.99663
5999999.99788
6000000.00081
6000000.00173
5999999.99806
5999999.99936
6000000.00009
6000000.0002
6000000.00003
6000000
6000000.00001
6000000
6000000.00002
5999999.99995
5999999.99995
6000000
6000000.00001
6000000.00011
6000000.00001
6000000
5999999.99995
5999999.99995
6000000.00002
6000000
6000000
6000000.00001
6000000
5999999.99992
6000000
6000000.00001
5999999.99998
5999999.99996
6000000.00003
6000000.00017
5999999.99996
6000000
6000000.00025
5999999.99876
6000000.0008
6000000.00031
6000000.00008
6000000.00032
6000000.00035
6000000.00002
5999999.99999
5999999.99988
6000000.00016
5999999.99966
6000000.00018
6000000.00313
6000000.00201
5999999.99731
5999999.99736
6000000.00209
6000000.00207
6000000.00143
6000000.00083
5999999.99891
5999999.99964
6000000.00001
6000000
5999999.9999
5999999.99955
6000000.00002
5999999.99952
5999999.99985
5999999.9998
5999999.99986
6000000.00013
6000000.00028
5999999.9998
5999999.99981
6000000
5999999.99995
6000000.00006
6000000
6000000
5999999.99996
6000000
6000000
5999999.99987
6000000
6000000
6000000.00001
6000000.00006
6000000
6000000.00007
6000000
5999999.99996
5999999.99985
6000000.00056
5999999.9991
6000000.0016
5999999.99775
5999999.99969
6000000.00358
6000000.00299
6000000.00241
6000000.00164
6000000.00049
5999999.9987
5999999.99858
5999999.99961
5999999.99959
5999999.99996
6000000.00445
5999999.9966
5999999.99871
5999999.99604
6000000.0018
6000000.00089
6000000.00094
6000000.00042
6000000.00027
6000000.00006
6000000.00021
6000000.00033
5999999.99986
6000000
6000000.00001
6000000
6000000.00001
5999999.99996
6000000.00043
5999999.99926
6000000.00132
5999999.99899
5999999.99917
5999999.99889
6000000.00103
5999999.99762
5999999.99803
6000000.00117
5999999.99756
5999999.99651
6000000.00292
6000000.00247
5999999.99811
6000000.0009
6000000.00022
5999999.99997
6000000.00017
6000000.00002
6000000
6000000
6000000
6000000
6000000
6000000
6000000.00001
6000000.00007
6000000.00013
6000000.00013
6000000.00001
6000000
6000000
6000000
6000000.00052
5999999.99915
6000000.00157
6000000.00164
6000000.00032
6000000.00082
6000000.00016
6000000.00115
5999999.99967
6000000.00008
5999999.99948
6000000.00007
5999999.99964
6000000.00112
6000000.00014
5999999.99997
5999999.99995
5999999.99998
5999999.99995
6000000
5999999.99998
6000000.00004
6000000.0001
5999999.99993
6000000
5999999.99998
6000000.00004
6000000
6000000
5999999.99999
5999999.99999
6000000.00025
6000000.00073
5999999.99915
6000000.00032
6000000.0002
6000000.00011
5999999.99999
6000000
5999999.99999
6000000
6000000.00016
5999999.99936
5999999.99977
6000000
6000000
5999999.99999
5999999.99996
6000000
6000000
6000000.00006
5999999.99992
5999999.99999
6000000
6000000
5999999.99994
6000000
6000000.00003
6000000
6000000
6000000
6000000
5999999.99999
5999999.99999
6000000
6000000.0001
5999999.99999
6000000.00006
6000000
6000000.00018
5999999.99947
6000000.00079
5999999.99849
5999999.99996
6000000.00037
6000000.00066
6000000.00162
5999999.99886
5999999.99991
5999999.9999
6000000
5999999.99996
5999999.99995
6000000.00008
5999999.99978
5999999.99999
6000000.00001
6000000.00001
6000000.00014
6000000.00025
6000000.00051
5999999.99916
5999999.99916
6000000.00093
5999999.99821
6000000.00099
5999999.99844
6000000.00269
6000000.00386
5999999.99718
5999999.99966
5999999.99812
6000000.00138
5999999.99988
6000000.00223
5999999.99722
5999999.99568
6000000.00266
5999999.99777
5999999.99814
5999999.99889
5999999.99856
5999999.99969
5999999.9986
5999999.9977
5999999.99599
6000000.00174
5999999.99683
5999999.99699
5999999.99832
5999999.9976
5999999.99952
5999999.99715
6000000.0014
6000000.00066
5999999.99972
5999999.99988
5999999.99999
5999999.99994
6000000.00001
6000000.00012
5999999.99994
5999999.99997
5999999.99919
6000000.00086
5999999.99798
5999999.99519
6000000.00316
5999999.99759
5999999.9972
6000000.00265
5999999.99718
5999999.99699
6000000.00031
6000000.00002
6000000
6000000.00013
6000000.00001
6000000
5999999.99999
6000000.00001
5999999.99991
6000000.00009
6000000.00001
5999999.99999
6000000.00001
5999999.99994
6000000
6000000
6000000.00007
5999999.99961
5999999.99887
6000000.00027
5999999.99967
6000000.00001
5999999.99995
5999999.99993
5999999.99993
6000000.0003
5999999.9997
5999999.99965
6000000.00002
5999999.99978
6000000.00007
6000000
5999999.99996
6000000.00006
6000000.00005
6000000.00079
5999999.99926
5999999.99922
6000000.00005
6000000.00001
6000000.00006
6000000
5999999.99996
6000000.00013
6000000.00017
6000000.00002
5999999.99995
5999999.99999
5999999.99995
6000000.00013
6000000.00001
6000000.00033
5999999.99996
6000000.00037
6000000.00092
6000000.00175
5999999.99681
5999999.99547
6000000.00301
6000000.00008
6000000.0006
6000000.00015
6000000.00024
6000000.0001
6000000.00001
6000000.0001
5999999.99997
5999999.99995
6000000
6000000.00001
5999999.99999
5999999.99999
5999999.99999
6000000
6000000.00001
6000000.00004
6000000
6000000
6000000
6000000
6000000.00004
6000000
5999999.99999
6000000
6000000
6000000.00004
6000000
6000000
6000000.00004
6000000
6000000
5999999.99996
5999999.99999
6000000
5999999.99999
5999999.99999
5999999.99985
5999999.99997
6000000
5999999.99999
6000000.0001
5999999.99999
6000000
6000000
6000000
6000000
6000000.00003
6000000
6000000
6000000
6000000
5999999.99999
5999999.99999
6000000
6000000.0001
5999999.99999
5999999.99995
6000000.00004
5999999.99976
6000000.00034
6000000.00259
5999999.99714
5999999.99891
6000000.00159
6000000.00004
6000000
6000000.00001
5999999.99995
6000000.00001
6000000
6000000.00009
6000000
6000000.00001
6000000.00001
5999999.99993
6000000.00009
6000000.00009
6000000.00009
6000000.00002
5999999.99995
6000000.00001
5999999.99994
6000000.00001
6000000
6000000
5999999.99995
5999999.99993
6000000.00011
5999999.99994
6000000.00014
5999999.99979
5999999.99993
5999999.99999
6000000.00018
5999999.99955
6000000.00047
5999999.99941
5999999.99811
6000000.00208
5999999.99765
5999999.99605
6000000.00306
5999999.99863
5999999.99999
5999999.99915
6000000.00046
6000000.00029
5999999.99992
6000000.00009
5999999.99994
5999999.99997
6000000.00013
6000000.00009
6000000.00001
5999999.99995
6000000
6000000
5999999.99994
6000000.00001
6000000.00012
5999999.99999
6000000.00008
5999999.99994
5999999.99996
6000000.00005
5999999.99967
5999999.99998
5999999.99964
5999999.99997
5999999.99999
5999999.99999
6000000
6000000.00014
6000000
5999999.99999
5999999.99997
5999999.99999
6000000
5999999.99995
5999999.99996
6000000.0001
5999999.99999
6000000
6000000.00006
5999999.99999
5999999.99999
6000000.00001
5999999.99999
6000000.00006
5999999.99996
5999999.99999
5999999.99986
5999999.99992
6000000.00006
5999999.99999
5999999.99999
5999999.99998
5999999.99999
5999999.99996
5999999.99999
5999999.99999
5999999.99996
5999999.99995
6000000.00006
5999999.99994
5999999.99999
5999999.99998
5999999.99999
6000000.0001
5999999.99995
5999999.99999
5999999.99998
6000000
5999999.99996
5999999.99999
5999999.99995
5999999.99996
5999999.99999
5999999.99998
5999999.99995
5999999.99999
5999999.99998
6000000.00014
5999999.99999
6000000.00003
6000000
5999999.99996
5999999.99999
6000000.00002
6000000.00028
5999999.99905
6000000.00043
6000000.00006
6000000.00006
6000000.00004
6000000.00006
6000000.00002
5999999.99984
6000000.00043
6000000.0036
6000000.00192
5999999.99977
6000000.00357
6000000.00131
5999999.99736
6000000.00138
6000000.0007
6000000.0007
5999999.99938
5999999.99962
6000000.00001
5999999.99997
6000000.00001
5999999.99989
6000000.00013
6000000.00002
5999999.99997
6000000.00001
5999999.99997
6000000.00008
5999999.99962
6000000.00116
5999999.99855
6000000.00163
6000000.00296
5999999.99815
6000000.0038
5999999.99679
5999999.99743
6000000.00234
5999999.99922
6000000.00392
5999999.99664
6000000.0003
6000000.0002
5999999.99979
5999999.99994
5999999.99997
6000000
6000000.00002
5999999.99994
6000000.00006
5999999.99997
5999999.99998
5999999.99998
5999999.99997
6000000.00006
5999999.99998
6000000
6000000.0001
5999999.99997
5999999.99995
6000000.00019
5999999.99935
5999999.99998
5999999.99989
5999999.99984
6000000
6000000.00105
5999999.99872
6000000.00001
6000000.00183
6000000.00165
5999999.99637
6000000.0002
6000000.00017
6000000.00132
6000000.00175
5999999.99678
5999999.99972
5999999.99941
6000000.00243
6000000.00351
5999999.99698
5999999.99897
5999999.99768
6000000.00071
5999999.99719
5999999.99688
5999999.99923
5999999.99738
6000000.00007
5999999.99891
5999999.99887
5999999.9989
6000000.0006
5999999.99724
5999999.99817
6000000.00239
6000000.00102
5999999.99717
5999999.99844
5999999.99801
5999999.99838
5999999.99885
5999999.9973
5999999.99958
5999999.99817
5999999.99557
6000000.00304
5999999.99892
5999999.99921
5999999.99874
5999999.99691
5999999.99715
6000000.00172
5999999.99787
5999999.99667
5999999.99959
5999999.99755
6000000.00055
6000000.00221
5999999.99623
5999999.99785
5999999.9968
6000000.0001
6000000.00171
5999999.99698
6000000.0045
6000000.00191
5999999.99869
6000000.00319
5999999.99604
5999999.99717
6000000.00087
5999999.99949
5999999.99998
5999999.99755
5999999.99839
6000000.00242
5999999.99808
5999999.9994
6000000.00163
5999999.99989
6000000.00128
6000000.00355
6000000.00127
6000000.00026
5999999.99799
5999999.9986
6000000.00238
6000000.00077
5999999.99616
5999999.99757
6000000.00026
6000000.00297
6000000.00056
5999999.99974
6000000.00066
6000000.0004
6000000.00032
5999999.99822
6000000.00053
6000000.00071
5999999.99943
6000000.00116
5999999.99867
6000000.00001
5999999.99912
6000000.00064
6000000.00081
5999999.99727
6000000
6000000.00019
5999999.99825
5999999.99848
6000000.00029
5999999.99997
5999999.99935
6000000.0002
5999999.99978
5999999.99914
5999999.99839
5999999.99929
5999999.99823
6000000.0004
5999999.99874
6000000.00322
5999999.99981
5999999.9994
6000000.00409
5999999.99699
6000000.00067
6000000.0013
6000000.00501
5999999.99987
6000000.00194
6000000.00661
6000000.00372
5999999.9986
5999999.99781
6000000.00722
6000000.00526
6000000.00262
6000000.0016
5999999.99722
6000000.00536
6000000.00452
6000000.00223
6000000.00219
6000000.00231
5999999.99712
6000000.00391
6000000.00386
6000000.00072
5999999.99898
6000000.00816
6000000.00181
5999999.99637
6000000.00244
6000000.00078
6000000.00871
6000000.00304
5999999.99864
6000000.00001
6000000.00789
5999999.99935
5999999.99784
6000000.00736
6000000.00615
6000000.00133
6000000.00454
6000000.00564
6000000.00266
5999999.99806
6000000.0022
6000000.00381
6000000.00539
6000000.00544
6000000.00284
6000000.00139
6000000.00358
6000000.00484
6000000.00125
6000000.00112
6000000.00413
5999999.99637
6000000.00488
6000000.00236
6000000.00821
6000000.00224
6000000.00397
6000000.00451
5999999.99702
6000000.00412
6000000.003
5999999.99831
6000000.00468
5999999.99867
5999999.99941
5999999.99909
5999999.99984
5999999.99839
5999999.99932
5999999.99884
5999999.99957
5999999.99946
5999999.99906
5999999.99878
5999999.999
5999999.99912
5999999.99881
6000000.00039
5999999.99844
5999999.99846
5999999.99884
5999999.99993
5999999.99932
5999999.99834
5999999.99876
5999999.99984
5999999.99869
5999999.99827
5999999.99885
5999999.99843
5999999.99913
5999999.99927
5999999.9976
5999999.99871
6000000.00033
5999999.99869
5999999.99819
5999999.99925
5999999.99821
5999999.99992
5999999.99955
5999999.9987
5999999.99692
5999999.99864
5999999.99934
5999999.99875
5999999.99956
6000000.00001
5999999.99853
5999999.99822
5999999.99943
5999999.99756
5999999.99779
5999999.99959
5999999.99966
6000000.00003
5999999.9998
5999999.99926
5999999.99992
5999999.99803
5999999.99824
5999999.99862
5999999.99882
5999999.99888
6000000.00008
6000000.00204
5999999.99826
5999999.99959
5999999.99966
5999999.99984
5999999.99975
6000000.00046
5999999.99979
5999999.99975
6000000.00027
5999999.99988
5999999.99988
5999999.99976
5999999.99991
6000000.00039
5999999.99999
5999999.99987
5999999.99983
6000000.0003
6000000.00032
5999999.99992
6000000.00027
5999999.99999
6000000.00036
5999999.99968
5999999.99965
6000000.00034
5999999.99994
6000000.00036
5999999.99984
5999999.99997
5999999.99972
6000000.00026
6000000.00042
6000000.00013
6000000.00045
5999999.99981
6000000.0004
6000000.00043
5999999.99973
6000000.00005
5999999.99984
6000000.00037
6000000.00003
5999999.99974
6000000.00052
6000000.00015
6000000.00031
6000000.00045
5999999.99977
5999999.99971
5999999.99999
6000000.00014
6000000.00016
6000000.00039
6000000.00031
5999999.9999
5999999.99998
6000000.00021
6000000.00007
6000000.00037
6000000.00021
6000000.00016
6000000.00044
5999999.99982
6000000.00027
6000000.00053
6000000.00066
6000000.00062
6000000.0007
6000000.00048
6000000.00068
6000000.0006
6000000.00093
6000000.00068
6000000.0006
6000000.00052
6000000.00063
6000000.00058
6000000.00061
6000000.00064
6000000.00063
6000000.00048
6000000.00072
6000000.00088
6000000.00057
6000000.00064
6000000.00076
6000000.00044
6000000.00061
6000000.00061
6000000.0007
6000000.00057
6000000.00041
6000000.00064
6000000.00062
6000000.00052
6000000.00063
6000000.0007
6000000.00081
6000000.00046
6000000.00068
6000000.00041
6000000.0006
6000000.00053
6000000.00054
6000000.00074
6000000.00065
6000000.00079
6000000.00079
6000000.0007
6000000.00062
6000000.00046
6000000.00074
6000000.00066
6000000.00078
6000000.00055
6000000.00051
6000000.00044
6000000.00065
6000000.0007
6000000.00068
6000000.00077
6000000.00075
6000000.00072
6000000.00072
6000000.00053
6000000.00088
6000000.00085
6000000.00073
5999999.99919
5999999.9991
5999999.99916
5999999.99924
5999999.99927
5999999.99939
5999999.9992
5999999.99922
5999999.9991
5999999.99906
5999999.9992
5999999.99928
5999999.9996
5999999.99918
5999999.99911
5999999.99922
5999999.99906
5999999.99931
5999999.99922
5999999.99918
5999999.99915
5999999.99903
5999999.99941
5999999.99935
5999999.99906
5999999.99916
5999999.99951
5999999.99916
5999999.9992
5999999.99931
5999999.99908
5999999.99957
5999999.9994
5999999.99932
5999999.99917
5999999.99915
5999999.99937
5999999.999
5999999.99903
5999999.9992
5999999.99926
5999999.99928
5999999.9992
5999999.99917
5999999.99919
5999999.9991
5999999.9994
5999999.99928
5999999.99913
5999999.99921
5999999.9992
5999999.99904
5999999.99897
5999999.99897
5999999.99908
5999999.99926
5999999.99926
5999999.9993
5999999.9993
5999999.9992
5999999.9992
5999999.99917
5999999.99916
5999999.99909
5999999.99958
5999999.99951
5999999.99945
5999999.99979
5999999.99959
5999999.99973
5999999.99976
5999999.99959
5999999.99982
5999999.99963
5999999.9995
5999999.99943
5999999.99958
5999999.99974
5999999.99976
5999999.99976
5999999.99975
5999999.99951
5999999.99953
5999999.99951
5999999.9997
5999999.99952
5999999.99964
5999999.99943
5999999.99961
5999999.99961
5999999.99957
5999999.99959
5999999.9997
5999999.99991
5999999.99972
5999999.99956
5999999.99969
5999999.99967
5999999.99948
5999999.99955
5999999.9998
5999999.99966
5999999.99963
5999999.99951
5999999.99973
5999999.99962
5999999.99951
5999999.99972
5999999.99972
5999999.99957
5999999.99973
5999999.9996
5999999.99971
5999999.99963
5999999.99974
5999999.99962
5999999.99956
5999999.99953
5999999.99949
5999999.99964
5999999.99961
5999999.99925
5999999.99954
5999999.9995
5999999.9995
5999999.99949
5999999.99972
5999999.99964
6000000.0003
6000000.00019
6000000.00008
5999999.99999
6000000.00011
6000000.00001
6000000.00021
6000000.00013
6000000.00004
5999999.99997
5999999.99995
6000000.00009
6000000.00011