/*--------------------------------*- C++ -*----------------------------------*\
  =========                 |
  \\      /  F ield         | OpenFOAM: The Open Source CFD Toolbox
   \\    /   O peration     | Website:  https://openfoam.org
    \\  /    A nd           | Version:  6
     \\/     M anipulation  |
\*---------------------------------------------------------------------------*/
FoamFile
{
    version     2.0;
    format      ascii;
    class       volVectorField;
    location    "3e-05";
    object      U;
}
// * * * * * * * * * * * * * * * * * * * * * * * * * * * * * * * * * * * * * //

dimensions      [0 1 -1 0 0 0 0];

internalField   nonuniform List<vector> 
8192
(
(-88.3220000002 0 -2.11402908643e-10)
(-88.3219999997 0 -2.68281913002e-11)
(-88.322 0 -4.44098438745e-11)
(-88.322 0 -5.20676636014e-11)
(-88.3219999999 0 -2.11217062642e-11)
(-88.322 0 3.66998985281e-12)
(-88.322 0 -1.49793529546e-12)
(-88.322 0 -5.14759996945e-12)
(-88.322 0 -5.71447006948e-11)
(-88.322 0 -2.59563559437e-10)
(-88.322 0 -2.13529369562e-10)
(-88.322 0 1.27618972112e-10)
(-88.322 0 2.55796794758e-10)
(-88.322 0 -1.89476696427e-10)
(-88.322 0 -3.73559463559e-10)
(-88.322 0 1.17607348629e-10)
(-88.322 0 -1.72486193154e-11)
(-88.322 0 2.07809578175e-10)
(-88.322 0 -2.63473266561e-10)
(-88.322 0 -1.74649667753e-10)
(-88.322 0 2.00690322947e-10)
(-88.322 0 2.09263109852e-10)
(-88.322 0 -1.0069232065e-10)
(-88.322 0 -1.54948296355e-10)
(-88.322 0 3.26800469961e-11)
(-88.322 0 2.40079400891e-11)
(-88.322 0 3.3348896938e-11)
(-88.322 0 2.82324814632e-11)
(-88.322 0 2.84239152015e-11)
(-88.322 0 -1.78454587296e-11)
(-88.3219999999 0 4.80794118994e-11)
(-88.322 0 2.71511918678e-11)
(-88.3219999996 0 -7.43473600599e-12)
(-88.3220000003 0 2.20060382554e-10)
(-88.3220000009 0 -1.66992453245e-10)
(-88.3219999997 0 -2.12821139451e-10)
(-88.322 0 5.97214100499e-12)
(-88.3219999998 0 -2.26508824078e-10)
(-88.3219999995 0 1.0022950752e-10)
(-88.3220000002 0 1.70675613387e-11)
(-88.322 0 2.03103750376e-11)
(-88.322 0 -1.82450695649e-12)
(-88.322 0 -1.13257320563e-11)
(-88.322 0 -5.31892570026e-12)
(-88.322 0 -2.69198689062e-11)
(-88.322 0 -1.04546804265e-11)
(-88.322 0 -5.54877005294e-12)
(-88.322 0 -1.34555559305e-12)
(-88.322 0 7.23789848584e-13)
(-88.322 0 -1.33706381093e-11)
(-88.322 0 -2.26475177682e-12)
(-88.322 0 -4.38153398982e-12)
(-88.3219999999 0 -2.56185507604e-11)
(-88.3219999999 0 6.40224921555e-11)
(-88.3220000003 0 5.2775023616e-11)
(-88.3220000002 0 -9.84032914222e-11)
(-88.3219999999 0 -1.98237680108e-11)
(-88.3219999999 0 -4.92799057464e-11)
(-88.322 0 -1.77024383747e-11)
(-88.3219999997 0 -4.49683399523e-11)
(-88.3219999994 0 1.16436802022e-10)
(-88.3219999998 0 2.21588727942e-10)
(-88.3220000003 0 2.09770283317e-10)
(-88.3220000009 0 9.05349377068e-11)
(-88.322 0 5.53708253149e-11)
(-88.322 0 -9.49052226392e-12)
(-88.322 0 2.03690230401e-11)
(-88.322 0 1.09972365289e-11)
(-88.322 0 1.84711136087e-11)
(-88.322 0 -7.80792788197e-12)
(-88.322 0 -2.22988026366e-13)
(-88.3220000001 0 1.14542126635e-13)
(-88.3220000005 0 -1.33616462969e-12)
(-88.3220000003 0 -1.2623195224e-11)
(-88.3219999992 0 -1.90057598971e-12)
(-88.321999999 0 -2.31367395069e-11)
(-88.3220000006 0 -5.42180484565e-12)
(-88.3220000012 0 -2.13430400064e-11)
(-88.3219999994 0 -6.77915490829e-11)
(-88.3219999993 0 3.88298226135e-11)
(-88.3219999998 0 -2.38990367935e-12)
(-88.3220000005 0 3.40362974269e-11)
(-88.3220000007 0 -5.25978593845e-11)
(-88.3219999991 0 -3.78005308564e-11)
(-88.3219999993 0 3.6114754652e-12)
(-88.3220000006 0 4.30430876427e-11)
(-88.3220000007 0 5.40439000639e-11)
(-88.3219999997 0 -3.71479504107e-11)
(-88.3219999997 0 1.75210240508e-10)
(-88.322 0 -1.34737990316e-10)
(-88.322 0 1.41866240556e-10)
(-88.322 0 1.29369998024e-10)
(-88.322 0 6.65214314279e-11)
(-88.322 0 4.02645802672e-11)
(-88.322 0 2.19642224559e-12)
(-88.322 0 -2.9253509515e-11)
(-88.322 0 -8.90585243844e-12)
(-88.322 0 -2.03683537989e-10)
(-88.322 0 1.28804548044e-10)
(-88.322 0 1.87519401382e-10)
(-88.322 0 -2.0056695198e-11)
(-88.322 0 1.10417383454e-10)
(-88.322 0 -9.70338498132e-11)
(-88.322 0 -2.21820077815e-11)
(-88.322 0 3.22293255443e-13)
(-88.322 0 -2.69585112766e-12)
(-88.322 0 -1.32481528591e-11)
(-88.322 0 5.4363981334e-12)
(-88.322 0 -1.68707796357e-10)
(-88.322 0 -1.024636453e-10)
(-88.322 0 -1.37456749812e-10)
(-88.322 0 -1.06210732363e-10)
(-88.322 0 -1.23624082478e-10)
(-88.322 0 -8.10512465517e-11)
(-88.322 0 1.24793003689e-10)
(-88.322 0 1.36778752236e-11)
(-88.322 0 6.38125694081e-12)
(-88.322 0 1.16423770711e-11)
(-88.322 0 -1.04322371033e-10)
(-88.322 0 2.31024451442e-10)
(-88.322 0 -5.84966041248e-11)
(-88.322 0 -2.02059624072e-10)
(-88.322 0 -2.73938041687e-10)
(-88.322 0 1.66495398756e-10)
(-88.322 0 6.22634539599e-11)
(-88.322 0 -4.82138391037e-10)
(-88.322 0 -4.40985779791e-10)
(-88.322 0 -1.82820974153e-10)
(-88.3219999999 0 1.28800725819e-11)
(-88.3219999997 0 6.23156176877e-12)
(-88.322 0 -2.71540510385e-12)
(-88.322 0 2.86478864265e-11)
(-88.322 0 6.91168570314e-12)
(-88.322 0 1.09751296612e-11)
(-88.322 0 2.82788645587e-12)
(-88.322 0 8.97382582009e-12)
(-88.322 0 4.29475726544e-11)
(-88.322 0 2.49454355863e-10)
(-88.322 0 2.0628473011e-10)
(-88.322 0 -1.22767378737e-10)
(-88.322 0 -2.57357849262e-10)
(-88.3220000001 0 1.66934041045e-10)
(-88.3219999999 0 3.52011342463e-10)
(-88.3219999999 0 -1.16949692135e-10)
(-88.322 0 1.54945194137e-11)
(-88.3220000001 0 -1.90340401778e-10)
(-88.3220000002 0 2.57711518966e-10)
(-88.3219999999 0 1.63544613785e-10)
(-88.3219999998 0 -2.00370586535e-10)
(-88.3219999999 0 -1.93812519536e-10)
(-88.3220000002 0 1.20550326633e-10)
(-88.3219999998 0 1.55600425427e-10)
(-88.3220000002 0 -1.13761213406e-11)
(-88.322 0 -2.37303862777e-11)
(-88.3219999994 0 -9.78360956029e-12)
(-88.3220000001 0 -8.34573670339e-12)
(-88.3220000002 0 8.3411042936e-11)
(-88.3220000001 0 -6.09299032893e-11)
(-88.322 0 7.32860260382e-11)
(-88.3220000001 0 -2.73665128453e-12)
(-88.322 0 -9.94354247542e-11)
(-88.322 0 1.29022116574e-10)
(-88.322 0 2.10906050813e-10)
(-88.322 0 -3.45352315575e-11)
(-88.3220000002 0 -1.97570629733e-10)
(-88.322 0 2.52969776423e-10)
(-88.3219999998 0 2.39068523149e-10)
(-88.322 0 -2.4875756761e-10)
(-88.322 0 -1.79079478124e-10)
(-88.322 0 -1.98574764157e-11)
(-88.322 0 -8.39780938489e-11)
(-88.3220000004 0 -3.25387372882e-11)
(-88.3220000002 0 -7.11415247553e-11)
(-88.3219999999 0 1.33294523511e-11)
(-88.322 0 -1.65280432251e-10)
(-88.3219999999 0 -3.23282417564e-10)
(-88.3219999999 0 1.06071203026e-10)
(-88.3219999995 0 -2.10246180075e-12)
(-88.3219999998 0 -7.2252970387e-11)
(-88.3220000003 0 6.6783649542e-11)
(-88.3219999999 0 -1.77174710202e-10)
(-88.3220000001 0 1.32070431014e-10)
(-88.3219999999 0 -2.1790579918e-11)
(-88.3220000001 0 -1.50220945265e-10)
(-88.3220000008 0 -1.17188496872e-10)
(-88.3220000004 0 -9.6217110006e-11)
(-88.3219999993 0 -7.08366716319e-11)
(-88.3219999991 0 -5.69265116076e-11)
(-88.3220000008 0 -5.82971059744e-11)
(-88.3220000008 0 2.53268224782e-11)
(-88.3219999997 0 -1.72064922309e-12)
(-88.3219999999 0 1.00529358168e-11)
(-88.322 0 1.77719757776e-10)
(-88.322 0 4.67166677844e-11)
(-88.322 0 2.0341659273e-11)
(-88.322 0 2.95330449671e-11)
(-88.322 0 -8.41052609841e-12)
(-88.322 0 -6.62052707201e-13)
(-88.322 0 1.30625408725e-12)
(-88.322 0 1.05569371334e-11)
(-88.322 0 5.00305188805e-12)
(-88.322 0 2.72910070647e-11)
(-88.322 0 9.07491734866e-12)
(-88.322 0 9.19484123886e-12)
(-88.322 0 1.05977741755e-11)
(-88.322 0 4.41343111296e-11)
(-88.322 0 7.8960504942e-11)
(-88.322 0 -4.33149450368e-11)
(-88.322 0 1.79952002905e-12)
(-88.322 0 -4.84876671482e-11)
(-88.322 0 5.01839978007e-11)
(-88.322 0 9.79663223311e-11)
(-88.322 0 -1.4177043519e-10)
(-88.322 0 -3.38367498296e-10)
(-88.322 0 9.58949781235e-11)
(-88.322 0 1.42322602438e-10)
(-88.322 0 -7.83529908263e-11)
(-88.322 0 2.1240684462e-10)
(-88.322 0 -1.00877203495e-10)
(-88.3219999999 0 -7.51397496806e-11)
(-88.3220000001 0 -7.50175015497e-11)
(-88.322 0 -3.54643394263e-11)
(-88.3219999999 0 9.8755134648e-12)
(-88.3220000004 0 -2.46831995001e-11)
(-88.3219999997 0 -1.46221038768e-11)
(-88.3219999994 0 -7.09992303433e-12)
(-88.3220000003 0 2.10431865267e-11)
(-88.3220000008 0 2.34138757246e-11)
(-88.3219999994 0 -8.25359417396e-12)
(-88.3219999991 0 1.15452257613e-10)
(-88.322000001 0 3.28554449703e-12)
(-88.3220000008 0 1.70635101725e-12)
(-88.3219999995 0 -9.15136323237e-12)
(-88.3219999999 0 -5.77845293861e-12)
(-88.322 0 1.06086791274e-11)
(-88.322 0 -1.93127890615e-12)
(-88.3219999999 0 1.90021792718e-10)
(-88.3220000002 0 1.03507039828e-10)
(-88.3220000007 0 1.33755484098e-10)
(-88.3219999995 0 9.11409249428e-11)
(-88.3219999994 0 1.32783495632e-10)
(-88.3220000003 0 9.64755627204e-11)
(-88.3219999999 0 -1.29732613999e-10)
(-88.3220000002 0 3.50749757249e-11)
(-88.3219999998 0 -6.13062111213e-11)
(-88.3219999997 0 1.62917665382e-10)
(-88.3220000006 0 2.28068749254e-10)
(-88.3220000002 0 -3.21868410399e-10)
(-88.3219999999 0 -2.26758584297e-11)
(-88.3219999999 0 2.44880788656e-10)
(-88.3219999999 0 1.50400295041e-10)
(-88.3219999999 0 -1.00946362285e-10)
(-88.3219999999 0 -3.18960163895e-10)
(-88.3219999999 0 4.52386161175e-10)
(-88.322 0 2.92963610464e-10)
(-88.322 0 1.67754876689e-10)
(-88.3220000001 0 -8.26539579963e-11)
(-88.3220000001 0 -1.94639383777e-11)
(-88.322 0 1.31704803529e-11)
(-88.322 0 7.68159772184e-12)
(-88.322 0 -1.40520783386e-11)
(-88.322 0 5.83469050949e-12)
(-88.322 0 7.72497739906e-12)
(-88.322 0 1.60922903684e-11)
(-88.322 0 1.07248384649e-11)
(-88.322 0 3.02728957031e-12)
(-88.322 0 4.05495028463e-12)
(-88.322 0 -3.31738375175e-11)
(-88.322 0 -4.18849333468e-11)
(-88.322 0 -8.6185467153e-12)
(-88.322 0 6.78890028988e-12)
(-88.322 0 6.8052237965e-12)
(-88.322 0 1.2010164883e-11)
(-88.322 0 8.30509039185e-12)
(-88.3219999999 0 -6.73188662343e-13)
(-88.3220000003 0 8.15697959143e-12)
(-88.3220000007 0 3.96392362781e-12)
(-88.3219999994 0 2.13874953776e-12)
(-88.3219999992 0 2.51742574086e-12)
(-88.3220000001 0 -2.16651082807e-11)
(-88.3220000001 0 8.41244384862e-12)
(-88.3220000001 0 8.04092620499e-12)
(-88.322 0 6.77725238265e-11)
(-88.3220000001 0 9.32941670867e-11)
(-88.3220000001 0 1.17847851687e-10)
(-88.322 0 1.88260359052e-11)
(-88.322 0 8.98006495849e-11)
(-88.3220000001 0 1.22588282264e-10)
(-88.322 0 -2.11836390291e-11)
(-88.322 0 -1.68611553356e-10)
(-88.322 0 -3.08128220478e-10)
(-88.322 0 -8.67993228012e-11)
(-88.322 0 2.34815749981e-10)
(-88.322 0 -2.91644440332e-10)
(-88.322 0 -2.3489411211e-10)
(-88.322 0 2.17422974302e-10)
(-88.322 0 1.43382837242e-10)
(-88.322 0 2.1053139049e-11)
(-88.322 0 7.16466231434e-11)
(-88.322 0 2.92075151259e-11)
(-88.322 0 5.29972998137e-11)
(-88.322 0 -1.31136376571e-11)
(-88.322 0 1.5951288163e-10)
(-88.322 0 3.04947197555e-10)
(-88.322 0 -9.90267713894e-11)
(-88.322 0 8.10330714436e-13)
(-88.3219999999 0 6.01909770367e-11)
(-88.3220000001 0 -3.58229015998e-11)
(-88.3219999997 0 1.37778959417e-10)
(-88.3219999995 0 -1.25084136726e-10)
(-88.3220000008 0 -1.41811049792e-11)
(-88.3220000006 0 -1.21856472605e-10)
(-88.3219999996 0 -5.56219357047e-11)
(-88.322 0 7.49235682984e-11)
(-88.3219999999 0 -2.33054008154e-10)
(-88.322 0 2.82251429376e-10)
(-88.3219999997 0 1.68225605491e-10)
(-88.3219999996 0 1.42793377793e-10)
(-88.3220000002 0 6.97628795261e-11)
(-88.3220000001 0 4.61968272984e-11)
(-88.3220000001 0 -1.43928590193e-11)
(-88.3219999998 0 -4.19771098445e-11)
(-88.322 0 8.6406328256e-11)
(-88.322 0 2.48474476966e-10)
(-88.322 0 -1.66316444273e-10)
(-88.322 0 2.28863396402e-10)
(-88.322 0 2.59473556722e-10)
(-88.322 0 -7.77599892649e-11)
(-88.322 0 -2.46438151907e-11)
(-88.322 0 2.49972120191e-11)
(-88.322 0 -1.60651876208e-12)
(-88.322 0 1.96925698458e-11)
(-88.322 0 4.88899687241e-11)
(-88.322 0 -7.63537935841e-11)
(-88.322 0 1.93143386745e-10)
(-88.322 0 1.93776169979e-10)
(-88.322 0 1.42742271317e-10)
(-88.322 0 7.10677910659e-11)
(-88.322 0 -7.12624686353e-11)
(-88.322 0 -7.38047199307e-11)
(-88.322 0 3.20436242145e-10)
(-88.322 0 4.75350372417e-10)
(-88.322 0 -1.87743075173e-10)
(-88.322 0 -2.56784069992e-10)
(-88.322 0 -1.43755573981e-10)
(-88.3219999999 0 1.57602663349e-10)
(-88.3219999998 0 8.05993926666e-11)
(-88.3219999998 0 -4.88848525907e-11)
(-88.3220000003 0 1.50414542248e-10)
(-88.3220000001 0 1.03434905095e-10)
(-88.3219999997 0 5.9415627362e-11)
(-88.3220000006 0 -1.7470997992e-10)
(-88.3220000003 0 4.01257488335e-11)
(-88.3219999999 0 1.35849479419e-11)
(-88.3220000002 0 7.82684784605e-12)
(-88.3219999997 0 -1.25538134284e-12)
(-88.3219999999 0 4.401317746e-12)
(-88.3220000001 0 6.63116592326e-12)
(-88.322 0 -4.69818295664e-12)
(-88.322 0 1.81603850993e-11)
(-88.322 0 1.00332865986e-11)
(-88.322 0 -6.97436577053e-12)
(-88.322 0 1.76976794259e-12)
(-88.322 0 1.43888315492e-12)
(-88.322 0 4.68989243432e-13)
(-88.322 0 -2.81656071111e-13)
(-88.322 0 2.46140026012e-12)
(-88.322 0 2.6590419726e-11)
(-88.322 0 -1.70356820466e-11)
(-88.322 0 -1.40326635289e-11)
(-88.322 0 1.10558363547e-11)
(-88.3220000001 0 -4.37884818916e-11)
(-88.322 0 1.06879063935e-10)
(-88.322 0 -2.15412158585e-10)
(-88.3220000006 0 -1.70576337327e-10)
(-88.3220000002 0 1.95182924019e-10)
(-88.3219999995 0 1.12939157795e-10)
(-88.3220000003 0 1.22938589577e-11)
(-88.3219999995 0 1.35310444728e-10)
(-88.3219999991 0 -2.29186342583e-11)
(-88.3220000001 0 1.42599144446e-10)
(-88.3220000001 0 -1.74264595913e-10)
(-88.3220000002 0 -4.11047826629e-11)
(-88.3220000003 0 -6.91028513508e-11)
(-88.3220000001 0 9.98134076039e-11)
(-88.3219999999 0 1.44289596796e-11)
(-88.3219999994 0 -1.34712183256e-11)
(-88.3220000006 0 -3.13938560331e-14)
(-88.322 0 1.44239703862e-12)
(-88.3219999991 0 -7.20360462189e-13)
(-88.3220000006 0 -1.05125467818e-11)
(-88.3220000006 0 -6.08233754221e-12)
(-88.3219999998 0 1.07513653511e-12)
(-88.322 0 -9.13992677543e-11)
(-88.322 0 1.6166939621e-10)
(-88.3219999999 0 -2.56176762886e-10)
(-88.3220000002 0 -3.1523667887e-10)
(-88.3219999997 0 -5.94147441863e-11)
(-88.3219999995 0 -6.82469477149e-11)
(-88.3220000001 0 -3.58102581487e-11)
(-88.3220000002 0 -8.04056695027e-12)
(-88.3220000004 0 -9.16205430635e-12)
(-88.3220000002 0 2.00095145533e-12)
(-88.3219999995 0 -1.30506820795e-12)
(-88.3219999996 0 -2.16401094032e-13)
(-88.3220000004 0 3.71752373022e-12)
(-88.3220000007 0 -3.02158440223e-12)
(-88.322 0 1.7183410539e-11)
(-88.3219999992 0 -3.10701059988e-11)
(-88.3219999997 0 3.96046864757e-12)
(-88.3220000004 0 -7.58248932068e-11)
(-88.3219999999 0 -8.76252406348e-11)
(-88.3219999998 0 -2.0608783698e-10)
(-88.3220000001 0 3.99311165238e-11)
(-88.3220000006 0 -1.65324732648e-10)
(-88.3220000002 0 -1.77235336552e-10)
(-88.3219999996 0 2.71904435691e-10)
(-88.322 0 8.78954991667e-11)
(-88.322 0 -1.47459939466e-10)
(-88.322 0 -3.50139671611e-11)
(-88.322 0 -8.64974093938e-11)
(-88.322 0 3.00388264943e-10)
(-88.322 0 1.73836183539e-11)
(-88.322 0 -1.06499011404e-10)
(-88.322 0 7.3913087167e-12)
(-88.322 0 2.80605321648e-12)
(-88.322 0 3.60935155285e-13)
(-88.322 0 7.34502545594e-12)
(-88.322 0 2.07321664169e-11)
(-88.322 0 8.70865886281e-13)
(-88.322 0 -5.15971818231e-14)
(-88.322 0 -4.83295165053e-13)
(-88.322 0 1.1921695446e-12)
(-88.322 0 9.60760862528e-13)
(-88.322 0 1.07620650818e-11)
(-88.322 0 -1.17070036818e-11)
(-88.322 0 2.24028064054e-11)
(-88.322 0 -2.96220959111e-11)
(-88.322 0 2.15178622133e-11)
(-88.322 0 2.22199348322e-10)
(-88.322 0 1.1060679462e-10)
(-88.322 0 7.21668185099e-12)
(-88.322 0 2.93071594827e-10)
(-88.322 0 -1.9503758347e-10)
(-88.322 0 -9.25874491764e-11)
(-88.322 0 5.98288604245e-11)
(-88.322 0 6.90892660248e-11)
(-88.322 0 -3.43911121116e-11)
(-88.322 0 3.96274198114e-11)
(-88.322 0 5.30230694234e-11)
(-88.322 0 -8.53513565618e-11)
(-88.322 0 -2.38592236085e-10)
(-88.322 0 1.8060208447e-10)
(-88.322 0 -2.26476257799e-10)
(-88.322 0 -2.59824781932e-10)
(-88.322 0 7.67326513905e-11)
(-88.3220000002 0 2.48191863479e-11)
(-88.3219999997 0 -3.58677574394e-11)
(-88.3220000004 0 6.94943021896e-12)
(-88.322000001 0 -1.4040389199e-11)
(-88.3219999996 0 -3.31714396946e-11)
(-88.3219999994 0 6.04191608949e-11)
(-88.3219999999 0 -1.94761156728e-10)
(-88.3219999999 0 -1.78918181885e-10)
(-88.3219999999 0 -1.35110726866e-10)
(-88.322 0 -6.12364904895e-11)
(-88.322 0 7.57953964942e-11)
(-88.322 0 1.49252854967e-11)
(-88.322 0 -1.73789483719e-10)
(-88.322 0 -1.86707576439e-10)
(-88.322 0 3.85108598506e-11)
(-88.322 0 1.56516452491e-10)
(-88.322 0 4.89639237249e-11)
(-88.322 0 -2.25849083003e-10)
(-88.322 0 -1.25523313756e-10)
(-88.322 0 -1.06466490008e-11)
(-88.322 0 -1.5987633552e-10)
(-88.322 0 -1.00311822203e-10)
(-88.3220000001 0 -9.92706969648e-11)
(-88.3219999998 0 1.99955048521e-10)
(-88.3219999998 0 -1.62978694082e-11)
(-88.3220000008 0 -8.25692193776e-12)
(-88.3220000004 0 -2.29727962816e-11)
(-88.3219999996 0 -5.1608532503e-12)
(-88.3219999992 0 2.79819539002e-11)
(-88.3219999999 0 -5.8824162466e-12)
(-88.3220000008 0 8.01967371994e-12)
(-88.3220000001 0 -1.55163772119e-11)
(-88.3219999997 0 -4.95219241103e-12)
(-88.322 0 1.49492113148e-11)
(-88.322 0 1.72188346721e-12)
(-88.322 0 -3.95043520355e-12)
(-88.322 0 -2.16030586498e-11)
(-88.322 0 -5.91988779282e-12)
(-88.322 0 1.1915202891e-12)
(-88.322 0 -1.39516512148e-11)
(-88.322 0 6.1609349081e-12)
(-88.322 0 3.97877539453e-12)
(-88.322 0 -1.05806392877e-11)
(-88.322 0 5.03062586343e-12)
(-88.322 0 -2.97797917929e-11)
(-88.322 0 2.01896073599e-10)
(-88.3220000001 0 1.63931963195e-10)
(-88.322 0 -2.43118600724e-10)
(-88.322 0 -1.42217273718e-10)
(-88.322 0 -2.06405417864e-11)
(-88.3219999999 0 -1.77930001834e-10)
(-88.3219999999 0 4.79312019228e-11)
(-88.3219999996 0 -1.6357719926e-10)
(-88.3219999998 0 1.77592949589e-10)
(-88.3220000004 0 9.72334905175e-12)
(-88.3220000002 0 2.31977661533e-11)
(-88.322 0 -6.53220488928e-11)
(-88.3220000001 0 -2.62096702337e-11)
(-88.322 0 -6.99641599299e-12)
(-88.322 0 -1.16234874056e-11)
(-88.322 0 3.95450424776e-12)
(-88.322 0 1.67503403684e-12)
(-88.322 0 -4.39151060046e-13)
(-88.322 0 -1.02461894287e-11)
(-88.322 0 -4.41224499843e-12)
(-88.322 0 7.78043770759e-11)
(-88.322 0 -1.6924053581e-10)
(-88.322 0 2.85465015662e-10)
(-88.322 0 3.66139745773e-10)
(-88.322 0 6.38867340526e-11)
(-88.322 0 6.26652064914e-11)
(-88.322 0 2.79508601131e-11)
(-88.322 0 -3.12326186037e-12)
(-88.322 0 5.60740845776e-12)
(-88.322 0 1.64747323475e-12)
(-88.322 0 -3.06700866972e-13)
(-88.322 0 -5.50513010895e-12)
(-88.322 0 3.24982405877e-12)
(-88.322 0 7.91291230891e-12)
(-88.322 0 1.38070892074e-12)
(-88.322 0 8.64670106865e-12)
(-88.322 0 -1.19746159799e-11)
(-88.322 0 3.42639229254e-12)
(-88.322 0 5.4754248818e-12)
(-88.322 0 -3.68095239087e-12)
(-88.322 0 4.61080276338e-12)
(-88.322 0 1.38515153151e-11)
(-88.322 0 3.28697282151e-11)
(-88.322 0 -1.12131334807e-10)
(-88.322 0 1.70960968897e-10)
(-88.322 0 9.69265570477e-11)
(-88.322 0 -1.30978776854e-11)
(-88.322 0 6.37622314056e-12)
(-88.322 0 -4.17088347411e-10)
(-88.322 0 1.69340038357e-11)
(-88.322 0 1.29734207027e-10)
(-88.322 0 1.12572724857e-11)
(-88.322 0 -3.25719828398e-12)
(-88.322 0 1.23109607241e-11)
(-88.322 0 -1.45800415296e-11)
(-88.322 0 -1.68244300192e-11)
(-88.322 0 -5.22592041376e-12)
(-88.322 0 7.22488063068e-12)
(-88.322 0 1.08072435731e-11)
(-88.322 0 1.16964093374e-11)
(-88.322 0 1.46862489093e-11)
(-88.322 0 -3.87438611847e-12)
(-88.322 0 -2.51239551622e-12)
(-88.3219999996 0 -7.05770787683e-12)
(-88.3219999997 0 3.75422903263e-11)
(-88.3220000009 0 4.23084318916e-11)
(-88.3220000006 0 -1.04636222085e-10)
(-88.3219999995 0 -5.38002834964e-11)
(-88.3220000001 0 -6.59333484945e-11)
(-88.3219999999 0 -1.78052684025e-11)
(-88.3219999999 0 -2.46905588583e-11)
(-88.3219999997 0 6.90997559237e-11)
(-88.3219999996 0 -4.06030166115e-10)
(-88.3220000003 0 -2.57375828747e-10)
(-88.322 0 -9.95723828006e-11)
(-88.3219999999 0 -2.98612613231e-12)
(-88.3219999999 0 5.40660062729e-11)
(-88.322 0 -1.79356497288e-11)
(-88.322 0 -7.42010084596e-12)
(-88.322 0 9.67793833394e-12)
(-88.322 0 4.55072686924e-12)
(-88.322 0 -1.62849177018e-11)
(-88.322 0 -3.30500913002e-11)
(-88.322 0 -1.52589536145e-11)
(-88.322 0 -1.60477722358e-11)
(-88.322 0 -3.6562559347e-12)
(-88.322 0 -9.48640730135e-12)
(-88.322 0 -6.29638983683e-12)
(-88.322 0 -5.80819081672e-13)
(-88.322 0 -4.1340429666e-12)
(-88.322 0 -5.13619424394e-12)
(-88.322 0 -7.77450213849e-12)
(-88.322 0 -5.14551839985e-12)
(-88.322 0 1.13934888312e-11)
(-88.322 0 -3.71320835471e-11)
(-88.322 0 -3.81471100316e-11)
(-88.322 0 1.20014102277e-10)
(-88.322 0 1.17335360443e-10)
(-88.322 0 -1.75047416448e-10)
(-88.322 0 -1.83020181458e-10)
(-88.322 0 -9.11070834876e-11)
(-88.322 0 9.8596789699e-12)
(-88.322 0 -5.11432042138e-11)
(-88.322 0 2.76017098862e-11)
(-88.322 0 -7.98520526271e-11)
(-88.322 0 -1.87086023333e-10)
(-88.322 0 -1.50718796645e-10)
(-88.3219999995 0 -3.52818520525e-12)
(-88.3220000004 0 -1.91708099995e-10)
(-88.3220000008 0 -2.44037474068e-10)
(-88.3219999998 0 -2.76022866979e-10)
(-88.322 0 2.08989365383e-10)
(-88.3219999998 0 2.63480945371e-10)
(-88.3219999997 0 -2.33549538398e-10)
(-88.322 0 -2.4382323076e-10)
(-88.322 0 1.17022451188e-10)
(-88.322 0 3.0480145776e-11)
(-88.322 0 -2.21341987327e-10)
(-88.322 0 -2.20694333131e-10)
(-88.322 0 2.10511641267e-10)
(-88.322 0 -1.28632225565e-10)
(-88.322 0 4.79889755946e-11)
(-88.322 0 -2.76771362317e-10)
(-88.322 0 2.73129393297e-10)
(-88.322 0 -1.47915653034e-11)
(-88.322 0 1.45204287711e-11)
(-88.3220000001 0 3.05981475877e-11)
(-88.3219999999 0 -1.10833218808e-10)
(-88.3219999999 0 -3.11731413325e-10)
(-88.3220000003 0 -2.94811797744e-10)
(-88.3220000002 0 6.23155904e-13)
(-88.3219999999 0 3.13498570884e-10)
(-88.3219999999 0 2.97724480639e-10)
(-88.3219999998 0 -9.24512676461e-11)
(-88.3219999997 0 -2.06629754648e-10)
(-88.3220000004 0 1.97749294874e-10)
(-88.3220000004 0 -3.31312878523e-11)
(-88.3219999998 0 -8.00609998916e-11)
(-88.3219999999 0 2.59458585464e-11)
(-88.322 0 4.82830000507e-11)
(-88.3220000001 0 2.80037679442e-11)
(-88.3220000001 0 1.3044518857e-11)
(-88.322 0 -3.21200889643e-11)
(-88.322 0 9.21755144366e-12)
(-88.322 0 -3.88531705001e-11)
(-88.322 0 2.00512431455e-11)
(-88.322 0 2.43781122683e-11)
(-88.322 0 -4.04089469335e-11)
(-88.322 0 -1.59362634967e-10)
(-88.322 0 -9.89236378111e-11)
(-88.322 0 -1.76908615186e-10)
(-88.322 0 -2.08750575889e-10)
(-88.322 0 -1.52849907644e-10)
(-88.322 0 3.20601792419e-11)
(-88.322 0 2.57296051618e-11)
(-88.322 0 2.66562770052e-11)
(-88.322 0 -9.34538323768e-11)
(-88.3220000001 0 -1.80058058415e-10)
(-88.3220000001 0 1.12158055999e-10)
(-88.3219999997 0 1.87258534755e-10)
(-88.3219999997 0 2.74130793038e-10)
(-88.3220000006 0 -1.4696652843e-10)
(-88.3220000006 0 -7.47010077456e-11)
(-88.3219999998 0 7.33296124421e-11)
(-88.3219999996 0 6.43387166597e-11)
(-88.3219999999 0 6.63115747353e-11)
(-88.322 0 3.00917743064e-11)
(-88.3220000001 0 2.81180374776e-11)
(-88.3220000004 0 2.21080446885e-11)
(-88.3220000001 0 -2.89457074542e-11)
(-88.3219999996 0 1.35726973374e-11)
(-88.322 0 -1.85564111973e-11)
(-88.3220000005 0 -2.40526952e-10)
(-88.3220000002 0 1.6755310344e-10)
(-88.321999999 0 2.23160895066e-10)
(-88.3219999989 0 1.24622059231e-10)
(-88.3220000009 0 2.88411795574e-10)
(-88.322000001 0 -9.26249784969e-11)
(-88.3219999993 0 1.46090861158e-11)
(-88.3219999995 0 3.09852437878e-12)
(-88.3220000007 0 -1.11020263673e-12)
(-88.3220000005 0 4.13313626718e-12)
(-88.3219999992 0 -1.25760776229e-11)
(-88.3219999998 0 1.2573770978e-11)
(-88.3220000003 0 -1.41215667439e-11)
(-88.3220000003 0 -4.8717106516e-11)
(-88.3219999995 0 6.61364869923e-11)
(-88.3219999995 0 5.34278524726e-11)
(-88.3220000005 0 1.13499702792e-10)
(-88.3219999999 0 -1.42831217627e-10)
(-88.3220000002 0 -1.63887605024e-10)
(-88.3220000003 0 1.21181077697e-10)
(-88.322 0 -1.90192941456e-11)
(-88.3220000003 0 1.55311260387e-11)
(-88.3219999994 0 1.31519266536e-10)
(-88.321999999 0 1.8457679496e-10)
(-88.3220000009 0 1.78004280239e-10)
(-88.3220000008 0 -3.94108374128e-11)
(-88.3219999993 0 -2.39856568874e-11)
(-88.3219999994 0 -1.19857398909e-10)
(-88.3220000002 0 1.829959567e-10)
(-88.3220000002 0 1.20085234616e-10)
(-88.3219999998 0 7.95384222544e-11)
(-88.322 0 -4.90030122208e-11)
(-88.322 0 -7.27000173349e-11)
(-88.322 0 1.34803055503e-11)
(-88.322 0 -1.39737038838e-11)
(-88.322 0 -2.19038558082e-12)
(-88.322 0 -9.24251898753e-12)
(-88.3219999999 0 4.58496437029e-12)
(-88.3220000001 0 1.7441702351e-11)
(-88.3220000004 0 9.36109976569e-12)
(-88.3220000001 0 -2.03503765161e-12)
(-88.322 0 -2.99904083968e-11)
(-88.3220000002 0 -3.97789165428e-12)
(-88.322 0 -2.41326352545e-11)
(-88.3219999996 0 -1.20979542013e-11)
(-88.3219999996 0 -1.48749536103e-11)
(-88.322 0 -6.34854114412e-12)
(-88.3220000002 0 -1.8007199285e-12)
(-88.3220000004 0 4.43799785917e-12)
(-88.3219999996 0 -1.73412751331e-11)
(-88.3219999993 0 4.02377092756e-11)
(-88.3219999997 0 3.50755485752e-11)
(-88.3220000007 0 -1.08466215688e-10)
(-88.3220000007 0 -1.16735161649e-10)
(-88.3219999996 0 1.6550271513e-10)
(-88.3219999997 0 1.81561708006e-10)
(-88.322 0 8.60240608231e-11)
(-88.322 0 -7.83820228978e-12)
(-88.322 0 5.24716498542e-11)
(-88.322 0 -2.04685789383e-11)
(-88.322 0 8.18554211948e-11)
(-88.322 0 1.8770203865e-10)
(-88.322 0 1.50195757351e-10)
(-88.322 0 1.18494681235e-12)
(-88.322 0 1.89090648539e-10)
(-88.3219999999 0 2.49595888482e-10)
(-88.3219999998 0 2.92121993444e-10)
(-88.3219999999 0 -2.08767431597e-10)
(-88.3220000003 0 -2.50276908765e-10)
(-88.3220000002 0 2.52331585549e-10)
(-88.3219999999 0 2.46508509656e-10)
(-88.322 0 -1.10724927695e-10)
(-88.322 0 -2.91174955678e-11)
(-88.322 0 2.17806082944e-10)
(-88.322 0 2.16956237505e-10)
(-88.322 0 -2.17138096983e-10)
(-88.3220000001 0 1.25034126833e-10)
(-88.3219999999 0 -5.10093138026e-11)
(-88.3219999998 0 2.7316417335e-10)
(-88.3219999999 0 -2.75900872905e-10)
(-88.3220000004 0 1.71468918928e-11)
(-88.3220000005 0 -8.80522479823e-12)
(-88.3219999995 0 -8.05305564337e-11)
(-88.3219999997 0 2.72887113349e-11)
(-88.3220000001 0 2.8152141232e-10)
(-88.322 0 2.41019052669e-10)
(-88.3219999999 0 1.74501784286e-11)
(-88.3219999998 0 -1.43001630636e-10)
(-88.3220000003 0 -3.0807128651e-10)
(-88.3220000002 0 2.44879009601e-10)
(-88.3219999999 0 1.49799003616e-10)
(-88.322 0 -4.69799647917e-11)
(-88.322 0 -1.55345600639e-10)
(-88.322 0 3.73591492744e-11)
(-88.322 0 -5.29429794073e-11)
(-88.322 0 2.2588126608e-12)
(-88.322 0 1.57543237087e-11)
(-88.322 0 -7.43570424355e-12)
(-88.322 0 3.35026030976e-11)
(-88.322 0 -7.41434430201e-12)
(-88.322 0 3.50762316108e-11)
(-88.322 0 -2.67805471435e-11)
(-88.322 0 -3.65830101427e-11)
(-88.322 0 -4.06585939554e-11)
(-88.322 0 2.67849831581e-12)
(-88.322 0 1.04725129252e-10)
(-88.322 0 4.82954479048e-11)
(-88.322 0 -4.79811996778e-11)
(-88.322 0 -6.06655707665e-11)
(-88.322 0 -4.76148198094e-12)
(-88.322 0 -9.84402231454e-12)
(-88.322 0 -2.72428386106e-11)
(-88.322 0 8.80977709554e-11)
(-88.322 0 1.80911220327e-10)
(-88.322 0 -1.14660227435e-10)
(-88.322 0 -1.91111181353e-10)
(-88.322 0 -2.7405058947e-10)
(-88.322 0 1.34702910194e-10)
(-88.322 0 7.72922914753e-11)
(-88.322 0 -6.93078478646e-11)
(-88.322 0 -6.25971654555e-11)
(-88.322 0 -6.80278588913e-11)
(-88.322 0 -4.16870923034e-11)
(-88.322 0 -3.35542540077e-11)
(-88.322 0 -1.20095762247e-11)
(-88.322 0 1.63629108837e-11)
(-88.322 0 4.12722028866e-11)
(-88.322 0 -6.33913455158e-11)
(-88.322 0 9.15378280062e-11)
(-88.322 0 -1.28899291547e-10)
(-88.322 0 -1.52180514586e-10)
(-88.322 0 -1.65375069051e-10)
(-88.322 0 5.14592350706e-11)
(-88.322 0 -1.47917544061e-10)
(-88.322 0 -2.16885875145e-10)
(-88.322 0 1.68725538534e-10)
(-88.322 0 1.20007177261e-10)
(-88.322 0 -1.05790964779e-10)
(-88.322 0 -6.61866822527e-12)
(-88.322 0 -1.82985828502e-10)
(-88.322 0 -1.84643631204e-10)
(-88.322 0 -6.44676145784e-11)
(-88.322 0 -2.06646743971e-10)
(-88.322 0 -1.09271986464e-10)
(-88.322 0 -1.41400696601e-10)
(-88.3220000001 0 1.07617604304e-10)
(-88.3220000002 0 1.76496603758e-10)
(-88.3219999996 0 -1.41087415764e-10)
(-88.3219999996 0 1.63103006751e-11)
(-88.3220000008 0 -1.07687009623e-10)
(-88.3220000002 0 1.1798457464e-10)
(-88.3219999996 0 -1.36521682248e-10)
(-88.3220000001 0 -3.69672980022e-10)
(-88.322 0 -1.57029956574e-10)
(-88.3219999999 0 -3.24267362912e-11)
(-88.322 0 3.11708093855e-11)
(-88.322 0 3.88704227244e-12)
(-88.322 0 -1.57082194166e-13)
(-88.322 0 2.31141762326e-13)
(-88.322 0 4.35798841908e-11)
(-88.322 0 -6.5304014595e-11)
(-88.322 0 -1.72932544081e-11)
(-88.322 0 -6.42084647141e-12)
(-88.322 0 -9.10497759625e-12)
(-88.322 0 -2.40603363256e-12)
(-88.322 0 9.41607872184e-12)
(-88.3220000001 0 -9.45617768276e-12)
(-88.3220000003 0 2.78966315646e-11)
(-88.3219999998 0 -6.11485566413e-11)
(-88.3219999999 0 2.06554000645e-10)
(-88.3220000004 0 -2.65885342786e-10)
(-88.3220000002 0 -3.18540800355e-10)
(-88.3219999995 0 -1.2008707916e-11)
(-88.3219999995 0 -7.74905179318e-12)
(-88.3220000001 0 -1.27110873881e-11)
(-88.322 0 -2.89029741155e-12)
(-88.322 0 -6.1522864484e-12)
(-88.322 0 4.24133657896e-12)
(-88.322 0 -3.25754737643e-12)
(-88.322 0 -7.17941985433e-12)
(-88.322 0 -1.70568533276e-11)
(-88.322 0 -3.99376303443e-12)
(-88.322 0 7.68140143967e-12)
(-88.322 0 -1.06002337248e-12)
(-88.322 0 -3.25937338401e-12)
(-88.322 0 -1.036643136e-11)
(-88.322 0 -6.21781627698e-12)
(-88.322 0 -2.25499406879e-11)
(-88.322 0 -1.31820932756e-12)
(-88.3219999999 0 -4.41262269576e-14)
(-88.3220000001 0 9.82749076387e-13)
(-88.3219999999 0 -8.57064313863e-14)
(-88.3220000001 0 -1.36647658141e-12)
(-88.3220000004 0 -4.53426306697e-13)
(-88.3219999999 0 9.23681692459e-14)
(-88.3219999995 0 -2.47339141649e-11)
(-88.3220000002 0 -4.2814747775e-12)
(-88.3220000007 0 -5.53505467155e-13)
(-88.3219999993 0 -3.3819306169e-12)
(-88.3219999994 0 -2.16483144872e-13)
(-88.3220000006 0 2.37546555426e-12)
(-88.3220000003 0 2.59848990129e-13)
(-88.3220000002 0 7.14605047376e-13)
(-88.3220000003 0 5.71197679661e-13)
(-88.3219999998 0 -2.74266028537e-12)
(-88.3219999999 0 -3.93261116395e-13)