/*--------------------------------*- C++ -*----------------------------------*\
  =========                 |
  \\      /  F ield         | OpenFOAM: The Open Source CFD Toolbox
   \\    /   O peration     | Website:  https://openfoam.org
    \\  /    A nd           | Version:  6
     \\/     M anipulation  |
\*---------------------------------------------------------------------------*/
FoamFile
{
    version     2.0;
    format      ascii;
    class       volVectorField;
    location    "3e-06";
    object      U;
}
// * * * * * * * * * * * * * * * * * * * * * * * * * * * * * * * * * * * * * //

dimensions      [0 1 -1 0 0 0 0];

internalField   nonuniform List<vector> 
8192
(
(-88.322 0 -1.35361313615e-12)
(-88.322 0 -5.95220509719e-14)
(-88.322 0 -1.18683793367e-12)
(-88.322 0 -2.16478656541e-12)
(-88.322 0 6.1890337454e-13)
(-88.322 0 -1.92530133304e-13)
(-88.322 0 -1.19059721714e-13)
(-88.322 0 2.05623076272e-13)
(-88.322 0 -1.11721139695e-12)
(-88.322 0 -2.3197488933e-12)
(-88.322 0 -1.2514596514e-12)
(-88.322 0 7.36297520647e-13)
(-88.322 0 -1.95167757317e-12)
(-88.322 0 -1.94287997289e-12)
(-88.322 0 -2.55442314238e-12)
(-88.322 0 7.0172626463e-13)
(-88.322 0 -5.77249023251e-13)
(-88.322 0 8.65063612158e-13)
(-88.322 0 -2.13210341968e-12)
(-88.322 0 -1.54871281573e-12)
(-88.322 0 6.52641231136e-13)
(-88.322 0 1.2817267198e-12)
(-88.322 0 1.65174364226e-13)
(-88.322 0 -8.49045161524e-13)
(-88.322 0 7.3406596361e-13)
(-88.322 0 5.45833713558e-13)
(-88.322 0 1.27129271336e-12)
(-88.322 0 1.27854743791e-12)
(-88.322 0 5.3205660584e-13)
(-88.322 0 -1.06216911487e-12)
(-88.322 0 2.12277634683e-12)
(-88.322 0 -1.47977655994e-13)
(-88.322 0 -8.59928189305e-13)
(-88.322 0 9.89658942763e-13)
(-88.322 0 -2.47316110016e-12)
(-88.322 0 -1.04151121613e-13)
(-88.322 0 -9.31483108966e-14)
(-88.322 0 -1.97822817132e-12)
(-88.322 0 1.08595510781e-12)
(-88.322 0 -3.48111982685e-14)
(-88.322 0 1.25507835693e-12)
(-88.322 0 -9.95670013693e-14)
(-88.322 0 -9.79516254448e-13)
(-88.322 0 -2.0069748527e-13)
(-88.322 0 -1.48374821582e-12)
(-88.322 0 -4.15581861986e-14)
(-88.322 0 -2.55817960299e-14)
(-88.322 0 -4.91217305447e-14)
(-88.322 0 6.24165731549e-13)
(-88.322 0 -1.08058905811e-12)
(-88.322 0 -1.80198983463e-13)
(-88.322 0 -1.21754997733e-12)
(-88.322 0 -1.98589945444e-13)
(-88.322 0 2.13353545149e-12)
(-88.322 0 -1.40213312916e-13)
(-88.322 0 -2.00881629186e-12)
(-88.322 0 1.4757551278e-12)
(-88.322 0 -1.53077369794e-12)
(-88.322 0 -1.14113712097e-13)
(-88.322 0 1.39489816456e-13)
(-88.322 0 1.2297695305e-12)
(-88.322 0 2.79378153468e-12)
(-88.322 0 1.38074938159e-12)
(-88.322 0 7.43277111419e-14)
(-88.322 0 -2.91884614724e-15)
(-88.322 0 7.88309096853e-15)
(-88.322 0 7.19487354677e-13)
(-88.322 0 -1.14772753482e-13)
(-88.322 0 -4.50740458997e-14)
(-88.322 0 -1.60734679808e-13)
(-88.322 0 -5.09938446786e-15)
(-88.322 0 1.41782347053e-15)
(-88.322 0 -9.53012986076e-15)
(-88.322 0 -9.22334252048e-13)
(-88.322 0 -2.17346278314e-14)
(-88.322 0 -1.81424345019e-12)
(-88.322 0 -1.28615633605e-14)
(-88.322 0 -2.21988925648e-15)
(-88.322 0 8.5665970536e-15)
(-88.322 0 6.80377144017e-13)
(-88.322 0 7.16232326318e-15)
(-88.322 0 1.38047151905e-13)
(-88.322 0 -1.3883285457e-12)
(-88.322 0 -1.3744080372e-14)
(-88.322 0 5.69295455127e-14)
(-88.322 0 7.79473576287e-15)
(-88.322 0 5.65012250695e-15)
(-88.322 0 4.10160108045e-16)
(-88.322 0 -1.51705605826e-13)
(-88.322 0 -1.86995380678e-12)
(-88.322 0 9.11777828015e-13)
(-88.322 0 -3.49158413187e-13)
(-88.322 0 5.4946963848e-14)
(-88.322 0 -5.80067450807e-15)
(-88.322 0 -1.39495462156e-13)
(-88.322 0 -1.13025973889e-13)
(-88.322 0 -3.80134393322e-15)
(-88.322 0 -4.37271041932e-13)
(-88.322 0 1.25809626589e-13)
(-88.322 0 -1.40964341574e-12)
(-88.322 0 -8.73171496083e-13)
(-88.322 0 -6.03054859478e-15)
(-88.322 0 -4.42896982023e-13)
(-88.322 0 -1.53468946139e-15)
(-88.322 0 8.7617096242e-13)
(-88.322 0 -2.71981975899e-13)
(-88.322 0 -8.19209895082e-15)
(-88.322 0 1.1656874476e-13)
(-88.322 0 -5.18455361679e-13)
(-88.322 0 -1.57836638472e-12)
(-88.322 0 -8.74897951156e-13)
(-88.322 0 -6.82473862917e-14)
(-88.322 0 -2.62884758318e-12)
(-88.322 0 -8.27451676194e-14)
(-88.322 0 8.8220819176e-13)
(-88.322 0 -2.71083556833e-13)
(-88.322 0 -1.17912327275e-14)
(-88.322 0 -1.39792425978e-13)
(-88.322 0 -8.74759819695e-14)
(-88.322 0 5.02217688513e-12)
(-88.322 0 -9.65259544512e-13)
(-88.322 0 -5.26517327244e-13)
(-88.322 0 -1.66629326994e-12)
(-88.322 0 3.63362900398e-14)
(-88.322 0 -1.19842065188e-12)
(-88.322 0 -5.06897277545e-12)
(-88.322 0 -1.7632630611e-12)
(-88.322 0 -4.62991514767e-13)
(-88.322 0 5.00430523412e-13)
(-88.322 0 4.81887221558e-13)
(-88.322 0 -5.88757030026e-13)
(-88.322 0 2.31067437144e-12)
(-88.322 0 3.18643310366e-13)
(-88.322 0 1.02021779976e-12)
(-88.322 0 1.9795480419e-13)
(-88.322 0 2.47879635565e-13)
(-88.322 0 -3.18534160165e-14)
(-88.322 0 2.19639354662e-12)
(-88.322 0 1.10414282459e-12)
(-88.322 0 -5.22852985632e-14)
(-88.322 0 1.53904455441e-12)
(-88.322 0 1.22750033546e-13)
(-88.322 0 2.12975763131e-12)
(-88.322 0 -5.95701805648e-13)
(-88.322 0 3.27711904248e-13)
(-88.322 0 3.85957838821e-13)
(-88.322 0 2.11352567912e-12)
(-88.322 0 7.48687950339e-13)
(-88.322 0 -6.35564305839e-13)
(-88.322 0 2.96009134328e-13)
(-88.322 0 1.10674106985e-12)
(-88.322 0 8.27204770912e-13)
(-88.322 0 6.61384538601e-13)
(-88.322 0 -5.14289681903e-13)
(-88.322 0 4.22580648137e-16)
(-88.322 0 3.62174386444e-13)
(-88.322 0 -4.24162573289e-13)
(-88.322 0 -6.88093216359e-13)
(-88.322 0 -4.85233898448e-13)
(-88.322 0 1.16654088926e-13)
(-88.322 0 7.71732286485e-13)
(-88.322 0 1.43821319851e-12)
(-88.322 0 4.00209627588e-12)
(-88.322 0 -1.0909299105e-13)
(-88.322 0 -8.54711374276e-13)
(-88.322 0 1.01641419755e-12)
(-88.322 0 1.41601609375e-12)
(-88.322 0 -2.07950638437e-12)
(-88.322 0 -1.77876361285e-12)
(-88.322 0 2.83423551604e-15)
(-88.322 0 -1.18185494472e-12)
(-88.322 0 -2.22883769105e-13)
(-88.322 0 -1.66469309035e-12)
(-88.322 0 -1.86247410108e-13)
(-88.322 0 -7.21489602197e-13)
(-88.322 0 -2.09669914062e-12)
(-88.322 0 4.5990220693e-13)
(-88.322 0 1.81925250346e-13)
(-88.322 0 -1.94116480921e-13)
(-88.322 0 1.12204618628e-12)
(-88.322 0 -1.93457119613e-12)
(-88.322 0 -6.42387228435e-13)
(-88.322 0 -7.90118637811e-13)
(-88.322 0 -2.13732719773e-12)
(-88.322 0 -2.18733106891e-12)
(-88.322 0 -1.6260344416e-12)
(-88.322 0 -2.09631146921e-13)
(-88.322 0 -1.67742969555e-13)
(-88.322 0 5.48818501075e-15)
(-88.322 0 1.28773675568e-12)
(-88.322 0 1.59538073685e-14)
(-88.322 0 7.51169517725e-13)
(-88.322 0 1.30847237946e-12)
(-88.322 0 -2.74017156669e-13)
(-88.322 0 3.37397573145e-13)
(-88.322 0 1.4277505872e-12)
(-88.322 0 -1.3824185328e-12)
(-88.322 0 -6.56265582373e-15)
(-88.322 0 7.34599670454e-15)
(-88.322 0 9.13088759564e-13)
(-88.322 0 2.36011903602e-14)
(-88.322 0 1.82888877248e-12)
(-88.322 0 -8.58521845424e-14)
(-88.322 0 1.00098600485e-12)
(-88.322 0 1.01888955473e-12)
(-88.322 0 1.86714986985e-12)
(-88.322 0 7.41101635002e-15)
(-88.322 0 -1.43655599736e-12)
(-88.322 0 1.98816620301e-13)
(-88.322 0 -1.16244324017e-12)
(-88.322 0 1.3899509317e-12)
(-88.322 0 -9.52844556025e-14)
(-88.322 0 -9.91686031363e-14)
(-88.322 0 -2.07225344763e-12)
(-88.322 0 -1.51052586522e-13)
(-88.322 0 6.16380593476e-14)
(-88.322 0 1.05670454771e-12)
(-88.322 0 2.76195427707e-12)
(-88.322 0 -1.70836060418e-14)
(-88.322 0 -1.45654920901e-13)
(-88.322 0 4.4036648517e-14)
(-88.322 0 2.27699363051e-13)
(-88.322 0 1.02630621678e-12)
(-88.322 0 -6.01529673611e-13)
(-88.322 0 -1.0505330448e-14)
(-88.322 0 -5.14694290406e-13)
(-88.322 0 1.26945080372e-12)
(-88.322 0 1.61613950542e-12)
(-88.322 0 2.23663816661e-14)
(-88.322 0 1.87335308277e-12)
(-88.322 0 -7.27110178874e-13)
(-88.322 0 9.52726937274e-14)
(-88.322 0 -6.74528669248e-13)
(-88.322 0 -5.04505025066e-13)
(-88.322 0 1.07119066125e-13)
(-88.322 0 1.33455504061e-13)
(-88.322 0 2.00193794731e-12)
(-88.322 0 1.51663799418e-12)
(-88.322 0 8.67616503622e-13)
(-88.322 0 1.6973232606e-13)
(-88.322 0 2.7873385677e-12)
(-88.322 0 3.60974863375e-13)
(-88.322 0 -6.6198006586e-13)
(-88.322 0 2.7941444591e-13)
(-88.322 0 1.17343522996e-13)
(-88.322 0 1.03854289524e-12)
(-88.322 0 1.07406479305e-12)
(-88.322 0 -4.5489262673e-12)
(-88.322 0 9.2530313751e-13)
(-88.322 0 2.2031507909e-12)
(-88.322 0 2.30946769715e-13)
(-88.322 0 1.33717050525e-12)
(-88.322 0 -1.19361079773e-12)
(-88.322 0 5.05599773351e-12)
(-88.322 0 5.7639492293e-14)
(-88.322 0 1.62939607702e-12)
(-88.322 0 -1.69528847768e-12)
(-88.322 0 -6.62545670909e-13)
(-88.322 0 7.9061310704e-13)
(-88.322 0 -1.24973310223e-13)
(-88.322 0 -9.09824509895e-13)
(-88.322 0 -7.83689032319e-15)
(-88.322 0 -4.44307560179e-13)
(-88.322 0 1.38797870049e-12)
(-88.322 0 7.61758969171e-13)
(-88.322 0 1.42639458414e-13)
(-88.322 0 3.55845368507e-13)
(-88.322 0 -2.83617810733e-12)
(-88.322 0 -3.55950425575e-12)
(-88.322 0 -2.15890440463e-13)
(-88.322 0 8.03684219967e-15)
(-88.322 0 -2.87368014034e-14)
(-88.322 0 7.93381852436e-13)
(-88.322 0 2.90156425284e-13)
(-88.322 0 -1.34616636369e-13)
(-88.322 0 6.3777544426e-13)
(-88.322 0 -4.43478206843e-14)
(-88.322 0 -1.41539393761e-13)
(-88.322 0 4.16885265935e-13)
(-88.322 0 -1.67429811984e-12)
(-88.322 0 -1.6568435913e-14)
(-88.322 0 -4.12735488214e-14)
(-88.322 0 1.43685042062e-13)
(-88.322 0 4.44012572352e-13)
(-88.322 0 1.82300124829e-13)
(-88.322 0 2.32772212728e-15)
(-88.322 0 1.49494091025e-13)
(-88.322 0 2.62331498533e-13)
(-88.322 0 -1.45094980371e-12)
(-88.322 0 -1.6589818061e-12)
(-88.322 0 -5.17403069058e-12)
(-88.322 0 -3.66447710901e-13)
(-88.322 0 1.01338462081e-12)
(-88.322 0 -3.16965417723e-12)
(-88.322 0 -8.46128404692e-13)
(-88.322 0 4.86663295603e-13)
(-88.322 0 -1.82971492659e-14)
(-88.322 0 2.62450434614e-13)
(-88.322 0 5.03974611547e-13)
(-88.322 0 3.67243378227e-15)
(-88.322 0 5.9804900544e-15)
(-88.322 0 3.65173288211e-15)
(-88.322 0 -1.39974593899e-13)
(-88.322 0 5.07918603501e-13)
(-88.322 0 -8.35610653704e-15)
(-88.322 0 -6.90732957508e-13)
(-88.322 0 -5.14247997818e-15)
(-88.322 0 2.70144959201e-13)
(-88.322 0 5.12550429911e-13)
(-88.322 0 -1.11939835296e-13)
(-88.322 0 -6.80439529002e-13)
(-88.322 0 -1.62535940407e-14)
(-88.322 0 -4.26176018114e-13)
(-88.322 0 1.38247677761e-12)
(-88.322 0 -1.86840114517e-12)
(-88.322 0 1.67674778908e-12)
(-88.322 0 3.26929127937e-13)
(-88.322 0 1.88496092435e-12)
(-88.322 0 4.23053099136e-13)
(-88.322 0 -4.56450122174e-13)
(-88.322 0 -2.96396327341e-13)
(-88.322 0 -8.44973106274e-17)
(-88.322 0 2.15928925318e-13)
(-88.322 0 2.70643380419e-13)
(-88.322 0 7.09570400268e-15)
(-88.322 0 1.35583142579e-12)
(-88.322 0 1.78031307522e-12)
(-88.322 0 -1.63171015795e-12)
(-88.322 0 2.32933397464e-13)
(-88.322 0 8.01411167035e-13)
(-88.322 0 -5.865666866e-13)
(-88.322 0 1.76432115938e-12)
(-88.322 0 9.33469266241e-13)
(-88.322 0 -7.5691599358e-13)
(-88.322 0 2.13245185346e-12)
(-88.322 0 2.98500177148e-12)
(-88.322 0 8.73719128987e-14)
(-88.322 0 2.11164801338e-13)
(-88.322 0 -4.37877860591e-13)
(-88.322 0 3.91768863779e-13)
(-88.322 0 2.33500235158e-12)
(-88.322 0 1.46789565467e-12)
(-88.322 0 -8.76187617235e-13)
(-88.322 0 -2.26661269365e-12)
(-88.322 0 -1.84570223177e-12)
(-88.322 0 1.39280201023e-12)
(-88.322 0 -1.48684243582e-12)
(-88.322 0 -6.60383650078e-13)
(-88.322 0 2.19167280043e-12)
(-88.322 0 1.45373294564e-13)
(-88.322 0 -1.56058656977e-12)
(-88.322 0 -6.20434112012e-13)
(-88.322 0 6.32517886096e-14)
(-88.322 0 5.68851326724e-14)
(-88.322 0 2.59047300723e-13)
(-88.322 0 -2.10876211971e-13)
(-88.322 0 7.08590400836e-13)
(-88.322 0 2.33560540644e-13)
(-88.322 0 7.79323024286e-15)
(-88.322 0 1.39757704923e-12)
(-88.322 0 2.94823443224e-13)
(-88.322 0 -6.0675796823e-13)
(-88.322 0 5.76025129577e-14)
(-88.322 0 5.89599274378e-14)
(-88.322 0 -1.03974505297e-13)
(-88.322 0 -2.96192243199e-15)
(-88.322 0 -1.99628283777e-13)
(-88.322 0 1.38444966749e-12)
(-88.322 0 -8.74589037269e-13)
(-88.322 0 -9.65104193666e-15)
(-88.322 0 7.01188417606e-14)
(-88.322 0 1.04733456754e-12)
(-88.322 0 1.88655197671e-12)
(-88.322 0 -1.53289450516e-12)
(-88.322 0 6.04331258162e-13)
(-88.322 0 1.51309447054e-12)
(-88.322 0 -1.07218430446e-14)
(-88.322 0 5.94089676001e-13)
(-88.322 0 1.65998570566e-12)
(-88.322 0 -1.36674663406e-12)
(-88.322 0 9.05602373119e-13)
(-88.322 0 -2.29274381629e-12)
(-88.322 0 2.282137616e-12)
(-88.322 0 -1.43331565574e-12)
(-88.322 0 1.31769059675e-12)
(-88.322 0 3.28362288893e-13)
(-88.322 0 -9.4748819811e-13)
(-88.322 0 1.23598394073e-13)
(-88.322 0 8.73322048084e-14)
(-88.322 0 -4.27294807673e-15)
(-88.322 0 -7.55050654286e-13)
(-88.322 0 -8.93540617264e-13)
(-88.322 0 -8.59708383383e-15)
(-88.322 0 -1.30408143368e-13)
(-88.322 0 -1.88482636849e-14)
(-88.322 0 -2.15983782704e-14)
(-88.322 0 -2.62864923092e-13)
(-88.322 0 8.34779136183e-13)
(-88.322 0 5.95564897422e-15)
(-88.322 0 -3.75486100288e-15)
(-88.322 0 -6.79383218524e-13)
(-88.322 0 -6.17927703478e-13)
(-88.322 0 2.11066095682e-13)
(-88.322 0 -1.06672961727e-13)
(-88.322 0 -1.76145841308e-15)
(-88.322 0 -6.73867745963e-13)
(-88.322 0 -1.24009118751e-13)
(-88.322 0 1.7700708344e-12)
(-88.322 0 -8.70656148524e-13)
(-88.322 0 -1.31162785274e-14)
(-88.322 0 -8.88532599042e-13)
(-88.322 0 -1.49700911836e-13)
(-88.322 0 -1.47959119279e-13)
(-88.322 0 1.5752538162e-13)
(-88.322 0 -1.29270384258e-12)
(-88.322 0 -3.67130558321e-13)
(-88.322 0 3.16447707029e-12)
(-88.322 0 3.07805448185e-13)
(-88.322 0 2.19147256627e-16)
(-88.322 0 5.45262650998e-14)
(-88.322 0 -2.82502643833e-13)
(-88.322 0 5.04418100104e-12)
(-88.322 0 -7.6777135743e-13)
(-88.322 0 -1.05631047784e-15)
(-88.322 0 4.56187430397e-13)
(-88.322 0 2.89728857601e-14)
(-88.322 0 7.37610710477e-16)
(-88.322 0 2.99143815181e-13)
(-88.322 0 1.4939594053e-12)
(-88.322 0 -9.94128737581e-14)
(-88.322 0 -1.0101098325e-15)
(-88.322 0 1.78564082826e-15)
(-88.322 0 1.43956506139e-13)
(-88.322 0 4.13293471569e-15)
(-88.322 0 2.19265157663e-13)
(-88.322 0 2.04834466071e-14)
(-88.322 0 -9.41533395991e-15)
(-88.322 0 -8.87192592137e-13)
(-88.322 0 3.02373343795e-14)
(-88.322 0 5.00017822672e-13)
(-88.322 0 3.73876134826e-14)
(-88.322 0 1.20513865855e-13)
(-88.322 0 1.89091638513e-12)
(-88.322 0 -1.7648458331e-14)
(-88.322 0 -1.41142501048e-17)
(-88.322 0 2.50857271863e-16)
(-88.322 0 1.30476362244e-13)
(-88.322 0 -2.83373413893e-13)
(-88.322 0 2.05511138389e-12)
(-88.322 0 2.09001463177e-13)
(-88.322 0 -2.52270014203e-13)
(-88.322 0 4.09200997703e-13)
(-88.322 0 1.28389269262e-12)
(-88.322 0 -1.17827190119e-12)
(-88.322 0 -1.78178763798e-12)
(-88.322 0 1.63752419395e-12)
(-88.322 0 -2.35545945159e-13)
(-88.322 0 -1.62886811255e-12)
(-88.322 0 4.81204750518e-13)
(-88.322 0 -8.28850492474e-13)
(-88.322 0 1.30231978708e-12)
(-88.322 0 -1.05003198892e-12)
(-88.322 0 -1.90506272163e-12)
(-88.322 0 -1.70235113287e-12)
(-88.322 0 6.09400061755e-13)
(-88.322 0 6.75314644789e-13)
(-88.322 0 3.33501946021e-13)
(-88.322 0 -2.74557732449e-13)
(-88.322 0 -1.41780258144e-12)
(-88.322 0 6.11970360794e-13)
(-88.322 0 1.22851627919e-12)
(-88.322 0 1.99180118698e-12)
(-88.322 0 9.51185284782e-13)
(-88.322 0 -1.4090963474e-12)
(-88.322 0 5.9332835335e-13)
(-88.322 0 8.02843669326e-13)
(-88.322 0 -2.18848721418e-12)
(-88.322 0 -1.49948193498e-13)
(-88.322 0 6.75591001806e-13)
(-88.322 0 1.40002351924e-12)
(-88.322 0 -4.87067715916e-14)
(-88.322 0 -2.7810727816e-13)
(-88.322 0 -2.8422091264e-13)
(-88.322 0 1.2531289908e-14)
(-88.322 0 1.61987197182e-12)
(-88.322 0 -2.08343456837e-13)
(-88.322 0 8.69132279988e-13)
(-88.322 0 -1.3900847348e-12)
(-88.322 0 -5.0170522832e-13)
(-88.322 0 1.38775089649e-12)
(-88.322 0 -4.73468165465e-14)
(-88.322 0 -2.64125890196e-13)
(-88.322 0 -1.38925067671e-12)
(-88.322 0 5.48664185274e-14)
(-88.322 0 2.01011009812e-13)
(-88.322 0 -1.37929457878e-12)
(-88.322 0 7.29229386479e-13)
(-88.322 0 9.35680686947e-15)
(-88.322 0 -2.91707863656e-13)
(-88.322 0 -1.0503109806e-12)
(-88.322 0 -1.88653231086e-12)
(-88.322 0 6.41929456256e-13)
(-88.322 0 -9.61445121373e-13)
(-88.322 0 -2.01098311154e-12)
(-88.322 0 -2.22145123349e-14)
(-88.322 0 -8.77358911804e-13)
(-88.322 0 -2.15692615133e-12)
(-88.322 0 1.36528053985e-12)
(-88.322 0 -9.04671397182e-13)
(-88.322 0 2.27493690198e-12)
(-88.322 0 -2.28505681931e-12)
(-88.322 0 1.4396306703e-12)
(-88.322 0 5.18864925636e-14)
(-88.322 0 1.07263596046e-14)
(-88.322 0 9.17649826533e-13)
(-88.322 0 4.0132458748e-15)
(-88.322 0 -5.59788096256e-14)
(-88.322 0 8.73727315252e-13)
(-88.322 0 7.41109068508e-13)
(-88.322 0 -5.02268669184e-13)
(-88.322 0 -1.27573060997e-14)
(-88.322 0 -9.37776182613e-13)
(-88.322 0 -3.51633017611e-13)
(-88.322 0 1.97089092545e-12)
(-88.322 0 3.54526683529e-12)
(-88.322 0 -7.89655031743e-13)
(-88.322 0 -1.1182438073e-14)
(-88.322 0 -1.05885104286e-14)
(-88.322 0 -2.13346864404e-13)
(-88.322 0 7.75325115897e-13)
(-88.322 0 -4.69210366684e-14)
(-88.322 0 1.02598460007e-13)
(-88.322 0 2.4784623184e-16)
(-88.322 0 6.81858199328e-13)
(-88.322 0 1.5225587339e-13)
(-88.322 0 6.92969219295e-14)
(-88.322 0 8.75167533333e-13)
(-88.322 0 9.25057361368e-15)
(-88.322 0 8.88681363238e-13)
(-88.322 0 5.05998595012e-13)
(-88.322 0 -1.74725006797e-13)
(-88.322 0 1.22144899187e-12)
(-88.322 0 8.8957027871e-13)
(-88.322 0 1.0571959118e-13)
(-88.322 0 -1.54606112451e-12)
(-88.322 0 8.76046474734e-13)
(-88.322 0 5.02480382936e-13)
(-88.322 0 2.45858004475e-13)
(-88.322 0 -7.30464571553e-13)
(-88.322 0 -5.05670495154e-12)
(-88.322 0 1.08460832607e-12)
(-88.322 0 1.49425006475e-12)
(-88.322 0 -2.7476304774e-13)
(-88.322 0 -2.92485747027e-13)
(-88.322 0 1.48892334676e-12)
(-88.322 0 -3.14789085042e-13)
(-88.322 0 -1.48880497525e-12)
(-88.322 0 9.61175727386e-14)
(-88.322 0 2.19632034071e-13)
(-88.322 0 1.48453616736e-12)
(-88.322 0 -1.13433499337e-13)
(-88.322 0 1.2128299839e-12)
(-88.322 0 -2.12565217233e-13)
(-88.322 0 -3.03592720909e-13)
(-88.322 0 1.49063380569e-12)
(-88.322 0 8.94760841233e-13)
(-88.322 0 1.24127179748e-12)
(-88.322 0 -4.9362943079e-13)
(-88.322 0 3.92352911448e-13)
(-88.322 0 -1.48629461473e-12)
(-88.322 0 3.09589489399e-14)
(-88.322 0 -1.54554548391e-12)
(-88.322 0 2.12918167581e-15)
(-88.322 0 -5.0443511248e-12)
(-88.322 0 -7.52214066395e-13)
(-88.322 0 1.13354679113e-13)
(-88.322 0 -9.3051698006e-13)
(-88.322 0 5.4812389178e-13)
(-88.322 0 -1.01308163491e-12)
(-88.322 0 -1.17117092787e-12)
(-88.322 0 9.22368220343e-13)
(-88.322 0 -7.1925465774e-14)
(-88.322 0 -9.17610777108e-13)
(-88.322 0 -2.81110856449e-12)
(-88.322 0 -7.82762855227e-13)
(-88.322 0 -1.00668373943e-12)
(-88.322 0 8.60310779578e-13)
(-88.322 0 -9.13924417266e-13)
(-88.322 0 -5.973025498e-13)
(-88.322 0 1.51415981414e-13)
(-88.322 0 -2.37304674817e-13)
(-88.322 0 -4.82370023006e-13)
(-88.322 0 -7.99560506561e-13)
(-88.322 0 -3.00451453406e-13)
(-88.322 0 1.91566976877e-13)
(-88.322 0 -1.49755251699e-12)
(-88.322 0 -8.14030341674e-13)
(-88.322 0 1.4271576946e-13)
(-88.322 0 -5.08924855439e-13)
(-88.322 0 -1.66528231325e-12)
(-88.322 0 -2.79938743253e-12)
(-88.322 0 -8.81118759842e-13)
(-88.322 0 -1.59094133471e-13)
(-88.322 0 -2.07312279134e-12)
(-88.322 0 -6.80881775505e-14)
(-88.322 0 -1.46639182837e-12)
(-88.322 0 -2.78739144909e-12)
(-88.322 0 -2.88659938393e-13)
(-88.322 0 -2.2016583501e-13)
(-88.322 0 -1.88169422821e-12)
(-88.322 0 -1.90339244127e-12)
(-88.322 0 -1.90452365137e-12)
(-88.322 0 -1.53053893091e-13)
(-88.322 0 3.53647252834e-12)
(-88.322 0 -2.29951470435e-12)
(-88.322 0 -1.47538580492e-12)
(-88.322 0 7.34150178636e-13)
(-88.322 0 -3.1582845842e-13)
(-88.322 0 -1.70751412556e-12)
(-88.322 0 -1.52838246169e-12)
(-88.322 0 4.52347413419e-12)
(-88.322 0 -1.71368148828e-12)
(-88.322 0 5.33545000561e-14)
(-88.322 0 -1.56467443298e-12)
(-88.322 0 2.44885156263e-12)
(-88.322 0 -2.17484221585e-13)
(-88.322 0 7.29823314124e-13)
(-88.322 0 -3.2121464445e-13)
(-88.322 0 -1.75663698524e-12)
(-88.322 0 -2.70628155848e-12)
(-88.322 0 -6.33978993267e-13)
(-88.322 0 2.04084387773e-12)
(-88.322 0 3.10271960439e-13)
(-88.322 0 3.12567163334e-12)
(-88.322 0 1.64075993283e-13)
(-88.322 0 -1.68376689976e-12)
(-88.322 0 1.26379682332e-12)
(-88.322 0 -5.01375801723e-15)
(-88.322 0 6.98247007884e-14)
(-88.322 0 -7.37404321579e-13)
(-88.322 0 -2.75543993908e-13)
(-88.322 0 -1.0297898019e-13)
(-88.322 0 -1.10659578717e-13)
(-88.322 0 -2.30891131341e-12)
(-88.322 0 5.62590245377e-13)
(-88.322 0 -2.22439000856e-12)
(-88.322 0 1.36505170081e-12)
(-88.322 0 1.20291048893e-13)
(-88.322 0 -7.09032647339e-13)
(-88.322 0 -1.27967206136e-12)
(-88.322 0 -1.98447871403e-12)
(-88.322 0 -1.11768629442e-12)
(-88.322 0 -3.44519143863e-12)
(-88.322 0 -3.77543205193e-13)
(-88.322 0 2.91350961318e-13)
(-88.322 0 5.26666185535e-13)
(-88.322 0 -2.17351735824e-13)
(-88.322 0 -2.27871142884e-12)
(-88.322 0 -7.95090711743e-13)
(-88.322 0 1.51047844133e-12)
(-88.322 0 5.9664115604e-13)
(-88.322 0 1.54725857749e-12)
(-88.322 0 -1.63702276169e-12)
(-88.322 0 -1.9263448466e-13)
(-88.322 0 -1.39762315578e-13)
(-88.322 0 6.1820904753e-13)
(-88.322 0 1.56841235688e-12)
(-88.322 0 -1.07580470371e-12)
(-88.322 0 5.76945096399e-13)
(-88.322 0 2.77482110975e-13)
(-88.322 0 -6.74582115209e-13)
(-88.322 0 -1.20215866988e-13)
(-88.322 0 5.1456133417e-14)
(-88.322 0 -1.05083857127e-12)
(-88.322 0 1.67554732507e-12)
(-88.322 0 1.5284969753e-12)
(-88.322 0 2.41956976298e-12)
(-88.322 0 2.33412416294e-12)
(-88.322 0 -1.87838001409e-12)
(-88.322 0 1.48907963856e-12)
(-88.322 0 2.17860225208e-13)
(-88.322 0 -4.67689791472e-15)
(-88.322 0 1.61140793831e-13)
(-88.322 0 -1.08851769106e-12)
(-88.322 0 6.69331331885e-13)
(-88.322 0 -8.18721542029e-13)
(-88.322 0 4.71239337184e-13)
(-88.322 0 1.51783798772e-12)
(-88.322 0 1.00604012962e-12)
(-88.322 0 5.5014853391e-13)
(-88.322 0 -1.1477806985e-12)
(-88.322 0 -1.67539752582e-12)
(-88.322 0 1.48377437423e-12)
(-88.322 0 -6.49965451601e-13)
(-88.322 0 1.60288123754e-12)
(-88.322 0 2.20106987996e-12)
(-88.322 0 2.19335644228e-12)
(-88.322 0 2.07430208398e-12)
(-88.322 0 -1.15504276246e-12)
(-88.322 0 -1.3067631412e-14)
(-88.322 0 -3.42140619845e-13)
(-88.322 0 1.88974876027e-12)
(-88.322 0 5.61340757863e-13)
(-88.322 0 -1.16367141511e-13)
(-88.322 0 -9.01177466799e-13)
(-88.322 0 -5.44689988824e-13)
(-88.322 0 9.10027943287e-13)
(-88.322 0 -4.74901420516e-13)
(-88.322 0 -7.07481491253e-15)
(-88.322 0 -4.15784260332e-13)
(-88.322 0 1.555344255e-13)
(-88.322 0 1.39037802891e-12)
(-88.322 0 7.60569702457e-13)
(-88.322 0 1.39076551213e-13)
(-88.322 0 -2.26994168068e-12)
(-88.322 0 1.23569036432e-13)
(-88.322 0 -1.50434711699e-12)
(-88.322 0 -1.78741922377e-13)
(-88.322 0 -7.53469952369e-13)
(-88.322 0 -1.24120433137e-13)
(-88.322 0 -1.06771855573e-13)
(-88.322 0 4.41967793891e-13)
(-88.322 0 -1.39173939538e-13)
(-88.322 0 1.49400099529e-12)
(-88.322 0 4.42971034789e-14)
(-88.322 0 -1.38510946163e-13)
(-88.322 0 3.34357645958e-13)
(-88.322 0 1.15465170364e-12)
(-88.322 0 2.78567289799e-12)
(-88.322 0 1.11265644616e-13)
(-88.322 0 1.64832422994e-13)
(-88.322 0 2.07448331095e-12)
(-88.322 0 7.07567399988e-13)
(-88.322 0 1.47889093779e-12)
(-88.322 0 2.78616426209e-12)
(-88.322 0 1.16227744478e-13)
(-88.322 0 2.79419809325e-13)
(-88.322 0 2.76775664529e-12)
(-88.322 0 2.02783900768e-12)
(-88.322 0 2.01929856904e-12)
(-88.322 0 1.74288970564e-13)
(-88.322 0 -2.79300873244e-12)
(-88.322 0 2.29093220524e-12)
(-88.322 0 1.26342731225e-12)
(-88.322 0 -7.34825592551e-13)
(-88.322 0 3.44651168559e-14)
(-88.322 0 1.48531866138e-12)
(-88.322 0 1.47946369406e-12)
(-88.322 0 -4.52957271347e-12)
(-88.322 0 1.73796966624e-12)
(-88.322 0 1.94901797797e-14)
(-88.322 0 1.3550181627e-12)
(-88.322 0 -2.45026910382e-12)
(-88.322 0 1.68548234571e-13)
(-88.322 0 -7.39489317165e-13)
(-88.322 0 3.78059598557e-14)
(-88.322 0 1.53587280012e-12)
(-88.322 0 2.70937982457e-12)
(-88.322 0 3.77022012984e-13)
(-88.322 0 -2.01724654526e-12)
(-88.322 0 -1.6897156798e-13)
(-88.322 0 -4.51736586312e-12)
(-88.322 0 1.7897393242e-12)
(-88.322 0 3.62066365383e-13)
(-88.322 0 -2.54188799457e-13)
(-88.322 0 -1.86562355485e-12)
(-88.322 0 4.15137733582e-15)
(-88.322 0 -9.29197023124e-15)
(-88.322 0 2.40656717356e-13)
(-88.322 0 1.78203689564e-12)
(-88.322 0 -7.95225643974e-13)
(-88.322 0 2.2458401872e-12)
(-88.322 0 -4.91990013593e-13)
(-88.322 0 1.84977240512e-12)
(-88.322 0 -1.50530801514e-12)
(-88.322 0 -1.51044955417e-12)
(-88.322 0 -6.10036708529e-14)
(-88.322 0 2.72546263619e-13)
(-88.322 0 2.17516223294e-12)
(-88.322 0 -8.3904399209e-13)
(-88.322 0 1.55879283677e-13)
(-88.322 0 1.84379059774e-13)
(-88.322 0 -6.90133195974e-14)
(-88.322 0 -5.25607710872e-13)
(-88.322 0 3.18633994961e-13)
(-88.322 0 1.8319412143e-12)
(-88.322 0 8.88880562355e-13)
(-88.322 0 -2.14411361147e-12)
(-88.322 0 -6.04653345349e-13)
(-88.322 0 -1.41357150564e-12)
(-88.322 0 1.18853249054e-12)
(-88.322 0 -8.4982652641e-14)
(-88.322 0 2.96803860704e-15)
(-88.322 0 -6.23794244486e-13)
(-88.322 0 -1.72641668206e-12)
(-88.322 0 2.75810795573e-13)
(-88.322 0 -5.84647148586e-13)
(-88.322 0 -1.6438358984e-13)
(-88.322 0 5.42191107891e-13)
(-88.322 0 6.90205649125e-15)
(-88.322 0 -2.72834194321e-13)
(-88.322 0 6.43898300051e-13)
(-88.322 0 -2.17417385906e-12)
(-88.322 0 -2.30947334285e-12)
(-88.322 0 -1.84164843095e-12)
(-88.322 0 2.73307416898e-12)
(-88.322 0 -6.00080328315e-13)
(-88.322 0 -2.56129170105e-12)
(-88.322 0 6.66858327076e-13)
(-88.322 0 2.25103940646e-13)
(-88.322 0 -7.95181231134e-13)
(-88.322 0 1.17722057775e-12)
(-88.322 0 -1.1863838312e-12)
(-88.322 0 6.30829821784e-14)
(-88.322 0 -6.84407797467e-13)
(-88.322 0 -2.16031752335e-12)
(-88.322 0 -9.88470334714e-13)
(-88.322 0 -4.40561826391e-13)
(-88.322 0 1.25974546897e-12)
(-88.322 0 1.89437992801e-12)
(-88.322 0 -2.11940943951e-12)
(-88.322 0 5.10340326534e-13)
(-88.322 0 -1.65984343402e-12)
(-88.322 0 2.83692456297e-12)
(-88.322 0 -2.40091477043e-12)
(-88.322 0 -2.60611912395e-12)
(-88.322 0 2.9768553086e-13)
(-88.322 0 -2.17756908897e-13)
(-88.322 0 2.895726599e-13)
(-88.322 0 1.40224133841e-13)
(-88.322 0 -3.73407824007e-13)
(-88.322 0 -6.05691753923e-16)
(-88.322 0 6.7708843131e-14)
(-88.322 0 -1.22884589397e-12)
(-88.322 0 -2.08436516793e-13)
(-88.322 0 -3.2128672122e-13)
(-88.322 0 -7.86615857315e-13)
(-88.322 0 -3.76253162734e-13)
(-88.322 0 7.41346658384e-13)
(-88.322 0 4.98863465204e-15)
(-88.322 0 4.02425498988e-15)
(-88.322 0 7.86459000949e-13)
(-88.322 0 1.75829879705e-12)
(-88.322 0 -1.18928562693e-12)
(-88.322 0 -1.43061201617e-12)
(-88.322 0 8.20123745729e-13)
(-88.322 0 7.54456444357e-13)
(-88.322 0 1.21760436424e-13)
(-88.322 0 2.10321145562e-13)
(-88.322 0 -7.65822461776e-13)
(-88.322 0 5.15137195575e-14)
(-88.322 0 -1.16216264888e-13)
(-88.322 0 -5.70921416739e-14)
(-88.322 0 -6.96688606483e-13)
(-88.322 0 -1.68044732223e-13)
(-88.322 0 7.17973554306e-13)
(-88.322 0 3.80783648827e-15)
(-88.322 0 -5.87066236959e-14)
(-88.322 0 -8.83932670838e-13)
(-88.322 0 -1.6767362154e-13)
(-88.322 0 -2.07917611092e-12)
(-88.322 0 -4.00483378173e-14)
(-88.322 0 6.49349599821e-16)
(-88.322 0 1.12069027732e-13)
(-88.322 0 -5.01149973721e-16)
(-88.322 0 -5.13344685811e-15)
(-88.322 0 -6.36195118724e-15)
(-88.322 0 -1.73318286537e-14)
(-88.322 0 -1.50723366933e-12)
(-88.322 0 -1.31552338577e-14)
(-88.322 0 3.94954355932e-15)
(-88.322 0 -6.90638486128e-15)
(-88.322 0 2.04854226021e-15)
(-88.322 0 2.82153457285e-13)
(-88.322 0 1.23377364916e-15)
(-88.322 0 1.51229485123e-15)
(-88.322 0 3.46354288072e-15)
(-88.322 0 -2.71515829266e-14)
(-88.322 0 -7.59114240986e-14)
(-88.322 0 -7.99609906437e-15)
(-88.322 0 2.3564211025e-15)
(-88.322 0 -5.17616598843e-16)
(-88.322 0 8.92876871129e-15)
(-88.322 0 2.85535513895e-13)
(-88.322 0 -4.14996591081e-15)
(-88.322 0 -7.55394665609e-16)
(-88.322 0 -5.79672251804e-15)
(-88.322 0 -1.76992696314e-15)
(-88.322 0 -8.37428569118e-14)
(-88.322 0 2.14903572096e-15)
(-88.322 0 -1.22982165913e-15)
(-88.322 0 1.1447033215e-14)
(-88.322 0 1.43314345397e-12)
(-88.322 0 1.88324030316e-12)
(-88.322 0 3.9062767961e-13)
(-88.322 0 -6.60484576542e-13)
(-88.322 0 2.00546981378e-12)
(-88.322 0 -1.75448070421e-12)
(-88.322 0 7.99795555873e-13)
(-88.322 0 2.02328226908e-12)
(-88.322 0 -6.60715334956e-14)
(-88.322 0 3.59697994216e-13)
(-88.322 0 1.49637303616e-13)
(-88.322 0 1.45254245569e-12)
(-88.322 0 7.82277136833e-13)
(-88.322 0 2.84976241439e-12)
(-88.322 0 1.03959440687e-12)
(-88.322 0 1.03843280409e-12)
(-88.322 0 2.6803055985e-12)
(-88.322 0 2.80641783461e-12)
(-88.322 0 -2.00138937346e-13)
(-88.322 0 -2.22536746742e-13)
(-88.322 0 -1.29297718855e-12)
(-88.322 0 -6.11939874013e-13)
(-88.322 0 -2.64554587019e-13)
(-88.322 0 5.32487372754e-13)
(-88.322 0 4.71673773802e-14)
(-88.322 0 -2.21453892065e-12)
(-88.322 0 2.66203696001e-13)
(-88.322 0 -1.56841358012e-12)
(-88.322 0 -5.28752553986e-13)
(-88.322 0 7.33742464998e-14)
(-88.322 0 1.03752770428e-12)
(-88.322 0 3.07081387155e-13)
(-88.322 0 2.17576811065e-14)
(-88.322 0 1.65364040929e-12)
(-88.322 0 -5.05373521922e-13)
(-88.322 0 2.1350917828e-13)
(-88.322 0 -1.29126569459e-14)
(-88.322 0 -1.27284706868e-12)
(-88.322 0 6.66862561351e-13)
(-88.322 0 9.63500156189e-13)
(-88.322 0 4.00056280965e-13)
(-88.322 0 -4.3710487016e-12)
(-88.322 0 1.51329837441e-12)
(-88.322 0 9.54010769463e-13)
(-88.322 0 -6.13530644095e-13)
(-88.322 0 -4.56944142393e-15)
(-88.322 0 5.25462428191e-13)
(-88.322 0 -5.59935072647e-13)
(-88.322 0 1.89943678154e-12)
(-88.322 0 8.76326877836e-13)
(-88.322 0 6.68262694962e-15)
(-88.322 0 4.63707314663e-13)
(-88.322 0 1.00239733577e-12)
(-88.322 0 1.1986065836e-13)
(-88.322 0 1.71982419812e-13)
(-88.322 0 1.14064782697e-14)
(-88.322 0 5.26793966546e-13)
(-88.322 0 -5.15354649121e-13)
(-88.322 0 2.65796264648e-13)
(-88.322 0 -3.04724646129e-12)
(-88.322 0 2.30738819763e-14)
(-88.322 0 2.17434633519e-12)
(-88.322 0 -3.99274821984e-13)
(-88.322 0 2.90070516549e-13)
(-88.322 0 1.20293495363e-13)
(-88.322 0 -2.03633512758e-12)
(-88.322 0 -2.57691109478e-13)
(-88.322 0 3.46984713958e-13)
(-88.322 0 4.86060486205e-13)
(-88.322 0 1.78332618534e-12)
(-88.322 0 5.41640087567e-13)
(-88.322 0 -1.2603152142e-12)