/*--------------------------------*- C++ -*----------------------------------*\
  =========                 |
  \\      /  F ield         | OpenFOAM: The Open Source CFD Toolbox
   \\    /   O peration     | Website:  https://openfoam.org
    \\  /    A nd           | Version:  6
     \\/     M anipulation  |
\*---------------------------------------------------------------------------*/
FoamFile
{
    version     2.0;
    format      ascii;
    class       volScalarField;
    location    "2.4e-05";
    object      p;
}
// * * * * * * * * * * * * * * * * * * * * * * * * * * * * * * * * * * * * * //

dimensions      [1 -1 -2 0 0 0 0];

internalField   nonuniform List<scalar> 
8192
(
6000000.00321
6000000.00013
6000000.0005
6000000.00042
6000000.00026
5999999.99994
6000000.00001
5999999.99997
6000000.00001
6000000
6000000
6000000.00002
6000000.00019
6000000.0001
6000000.00004
6000000
6000000.00001
5999999.9999
5999999.99998
6000000.00005
5999999.99997
5999999.99995
5999999.9999
6000000
5999999.99995
6000000
5999999.99995
5999999.99989
5999999.99972
6000000.00022
5999999.9996
5999999.99958
5999999.99998
5999999.99682
6000000.00195
6000000.00259
5999999.99968
6000000.00274
5999999.99849
5999999.99979
6000000.00002
5999999.99999
6000000
6000000.00002
6000000.00017
6000000.00005
6000000
6000000
5999999.99996
6000000.00001
6000000.00001
5999999.99994
6000000.00028
5999999.99973
5999999.99921
6000000.00122
6000000.00041
6000000.00045
6000000.00003
6000000.00069
5999999.99875
5999999.99734
5999999.99717
5999999.99917
6000000
6000000
6000000.00002
6000000.0002
5999999.99996
6000000.00009
5999999.99999
6000000.0001
6000000.00058
6000000.00326
6000000.00215
5999999.99836
5999999.9965
6000000.0019
6000000.0048
5999999.99819
6000000.0003
5999999.99733
6000000.00368
6000000.00191
5999999.9972
5999999.99773
6000000.00157
6000000.00204
5999999.99951
5999999.99967
5999999.99996
5999999.99999
5999999.99996
6000000.00007
5999999.99987
6000000.00002
6000000.00007
6000000
6000000.00007
5999999.99999
6000000
5999999.99999
5999999.99999
6000000
5999999.99987
6000000.00002
6000000.00007
6000000
5999999.99999
5999999.99999
6000000
6000000
5999999.99999
6000000.00007
6000000
6000000.00011
6000000.00001
5999999.99987
6000000
6000000
5999999.99989
5999999.99996
6000000
5999999.99998
6000000.00002
6000000.00001
6000000.00002
6000000.00002
6000000.00184
6000000.00052
6000000.00029
6000000.00023
6000000
5999999.99995
6000000.00001
5999999.99997
6000000.00001
6000000.00009
6000000
6000000.00019
6000000.00019
6000000.00026
6000000.00092
5999999.99966
6000000
5999999.99951
6000000.00047
6000000.00044
6000000.00009
5999999.99928
5999999.99887
6000000.0007
5999999.9977
6000000.0013
5999999.9981
5999999.99839
5999999.99894
5999999.99958
5999999.99953
6000000.00006
6000000
5999999.99996
6000000.00015
6000000.00017
5999999.99997
6000000.00124
5999999.99998
6000000
5999999.99995
6000000.00001
6000000.00026
5999999.99963
6000000.00218
6000000.00092
6000000.00125
6000000.00095
6000000.00121
6000000.00082
5999999.99822
5999999.99965
6000000.00007
5999999.99919
6000000.00087
5999999.9981
6000000.00105
6000000.00307
6000000.00319
5999999.99827
5999999.99781
6000000.00325
6000000.00251
6000000.00098
5999999.99996
5999999.99997
6000000.00007
6000000
5999999.99994
6000000
5999999.99999
6000000
6000000.00009
6000000
6000000.00001
5999999.99994
5999999.99988
6000000.00007
6000000.00001
6000000
6000000
5999999.99997
6000000
6000000.00006
6000000
5999999.99994
5999999.99997
6000000
5999999.99995
6000000
5999999.99996
6000000.00013
5999999.99891
6000000.00072
5999999.99892
6000000.00019
6000000.00137
5999999.99851
5999999.99733
6000000.0007
6000000.00274
5999999.99705
5999999.99683
6000000.00339
6000000.00193
6000000.00026
6000000.00113
6000000.0005
6000000.00084
5999999.99967
6000000.00183
6000000.00446
5999999.99843
6000000.00006
6000000.00084
5999999.99918
6000000.0021
5999999.99786
6000000.00043
6000000.00132
6000000.00101
6000000.00079
6000000.00063
6000000.0008
6000000.00072
5999999.99962
5999999.99998
5999999.99996
5999999.9996
5999999.99993
6000000
5999999.99987
6000000.00011
5999999.99995
6000000.00001
5999999.9999
6000000.00001
5999999.99994
6000000.00001
6000000.00009
6000000.00009
5999999.99994
6000000.00001
6000000.00006
6000000
6000000.00001
6000000.00013
5999999.99925
6000000.00158
6000000.00386
5999999.99779
5999999.9988
5999999.99897
5999999.99895
5999999.99927
5999999.99914
5999999.99984
6000000.00002
5999999.99947
6000000.00035
6000000.00015
6000000
6000000.00001
5999999.99996
6000000.00007
6000000.00002
6000000.00001
5999999.99999
6000000
6000000.00004
6000000
6000000
6000000
6000000.00001
6000000
6000000.00001
5999999.99981
5999999.99988
6000000.00011
5999999.99907
6000000.00121
5999999.99754
5999999.99794
6000000.00255
6000000.00136
5999999.99996
6000000.00172
5999999.99968
6000000.00199
5999999.99758
5999999.99921
5999999.99905
6000000.00082
6000000.00024
5999999.99993
6000000
6000000
6000000
6000000.00001
5999999.99987
6000000.00001
6000000
5999999.99996
6000000.00019
6000000.00019
6000000.0001
6000000.00002
6000000
5999999.99995
5999999.99995
6000000.00001
6000000
6000000
5999999.99995
5999999.99993
6000000.00014
5999999.99979
6000000.00014
5999999.99922
5999999.99891
5999999.99736
6000000.00088
5999999.9978
5999999.99873
6000000.00188
6000000.00029
6000000.00113
6000000.0016
5999999.99943
6000000.00037
5999999.99979
6000000.00032
6000000.00018
5999999.99997
6000000.00017
6000000.00001
6000000.00017
6000000
6000000.00007
6000000.00017
5999999.99996
6000000.00013
6000000.00002
5999999.99978
6000000.00066
5999999.99959
6000000.00045
6000000.00337
6000000.0015
5999999.99995
6000000.00455
5999999.99717
5999999.99856
5999999.99803
5999999.99909
5999999.99937
5999999.9997
6000000.0005
5999999.99922
5999999.99681
6000000.00315
5999999.99729
5999999.99706
6000000.00085
6000000.00031
5999999.99959
6000000.00007
5999999.99979
5999999.99904
6000000.00109
5999999.99779
5999999.99797
5999999.99856
5999999.99932
6000000.00113
6000000.00016
5999999.99787
5999999.99774
6000000.00049
6000000.00205
6000000.00046
5999999.99679
5999999.99885
5999999.99998
5999999.99845
5999999.99904
5999999.99883
6000000.00299
5999999.9995
5999999.9997
5999999.99969
5999999.99999
6000000.00015
5999999.99997
6000000.00001
5999999.99987
5999999.99996
6000000.00011
5999999.99999
5999999.99999
6000000.00001
6000000.00001
6000000.00002
5999999.99987
6000000.00001
5999999.99999
5999999.99999
5999999.99992
5999999.99976
6000000
5999999.99987
6000000.00001
6000000
5999999.99995
5999999.99999
6000000.00001
6000000
5999999.99994
5999999.99979
5999999.9999
5999999.99972
5999999.99998
6000000.00009
6000000
6000000
6000000
6000000.00009
5999999.99994
5999999.99978
6000000.00144
5999999.9978
6000000.00327
6000000.0042
6000000.00047
6000000.0007
6000000.00047
6000000.00001
6000000
6000000
6000000.00001
6000000
6000000
5999999.99995
6000000
6000000.00008
6000000
6000000.00001
5999999.99995
5999999.99997
6000000.00013
5999999.99977
6000000.00095
5999999.9982
5999999.99924
6000000.00296
6000000.00204
6000000.00058
5999999.99696
5999999.99997
6000000.00178
6000000.00012
5999999.99995
6000000.00017
5999999.99997
6000000
6000000.00001
6000000.00007
6000000.00017
5999999.99995
6000000.00013
5999999.99997
5999999.99996
6000000.00017
6000000.00001
6000000.00028
6000000.00025
6000000.00045
6000000.00012
6000000.0002
5999999.99961
5999999.99963
5999999.99736
5999999.99854
5999999.99986
5999999.99932
5999999.99973
6000000
5999999.99981
6000000.00001
5999999.99994
6000000.00001
5999999.9999
6000000.00001
6000000
6000000.00001
6000000
5999999.99986
6000000.00009
6000000
5999999.99996
5999999.99995
5999999.99995
6000000
6000000
5999999.99994
5999999.99995
5999999.99992
6000000.00001
5999999.99995
5999999.99994
5999999.99995
5999999.99994
6000000
6000000
5999999.99995
5999999.99999
6000000
6000000.00001
6000000.00001
6000000.00002
5999999.99987
6000000.00001
5999999.99995
6000000
6000000.00001
5999999.99999
6000000
6000000.00001
6000000.00017
6000000.00005
6000000
6000000
5999999.99996
5999999.99992
6000000.00016
5999999.9997
6000000.00009
5999999.99727
5999999.99797
6000000.00364
6000000.00153
6000000.00002
6000000.00252
5999999.99909
6000000.00214
5999999.99746
5999999.9996
5999999.99974
6000000.00059
6000000.00037
6000000.00021
6000000.00002
6000000
5999999.99994
6000000.00001
6000000
6000000.00001
6000000.00009
6000000.00001
6000000.00002
5999999.99982
6000000.00016
6000000.00001
6000000
6000000.00001
5999999.99994
6000000
6000000
6000000
5999999.99995
5999999.99992
5999999.99999
5999999.99995
6000000
5999999.99995
5999999.9999
5999999.99997
6000000.00006
5999999.99954
6000000.00032
5999999.99974
5999999.99668
6000000.00197
6000000.00199
6000000.00042
6000000.00204
5999999.99942
6000000
6000000.00001
6000000.00001
6000000
6000000.00002
6000000.00017
6000000
6000000.00004
6000000.00004
5999999.99996
6000000
6000000.00001
6000000.00001
6000000.00039
5999999.99958
5999999.99973
6000000.00154
6000000.00126
6000000.00115
6000000.00043
5999999.99982
5999999.99851
6000000.00243
6000000.00132
6000000.00084
5999999.99956
5999999.99897
6000000.00014
5999999.99973
5999999.99992
5999999.9999
6000000.00013
6000000.00013
6000000.00009
6000000.00009
5999999.99995
6000000.00009
5999999.99995
6000000.00007
6000000.00002
6000000
6000000
5999999.99997
5999999.99973
6000000.00041
6000000.00061
5999999.99847
5999999.99856
6000000.00197
6000000.00195
6000000.00076
5999999.99973
6000000.00061
5999999.99949
6000000.00092
6000000.00213
6000000.00173
5999999.99986
6000000.00213
6000000.00314
6000000.00269
5999999.99749
5999999.99746
6000000.00317
6000000.0032
5999999.99843
5999999.99962
6000000.00278
6000000.00248
5999999.99686
6000000.0017
5999999.99917
6000000.00385
5999999.99663
6000000.00065
5999999.9999
5999999.99937
6000000.00118
6000000.00092
6000000.00115
6000000.00328
5999999.99824
5999999.99737
6000000.00365
6000000.00144
5999999.99953
5999999.99791
6000000.00045
5999999.99927
6000000.00001
6000000.00001
6000000.00001
6000000.0002
5999999.99993
6000000.00041
5999999.99972
5999999.99975
6000000.00045
6000000.00181
6000000.00068
6000000.00168
6000000.00154
6000000.00169
5999999.9994
5999999.99975
5999999.99957
6000000.00098
6000000.00231
5999999.99855
5999999.99742
5999999.99693
6000000.00194
6000000.00105
5999999.99889
5999999.99936
5999999.99945
5999999.99967
5999999.99979
5999999.99994
6000000
6000000.00002
5999999.99999
6000000
5999999.99994
5999999.99935
5999999.99934
5999999.99876
6000000.00047
5999999.99985
6000000
6000000.00002
5999999.99994
6000000.00014
6000000.00007
6000000.00015
6000000.00076
5999999.99925
5999999.99924
5999999.99836
6000000.00172
6000000.00187
5999999.99854
5999999.99983
5999999.99976
5999999.99998
5999999.99904
5999999.99873
6000000.00087
6000000.00009
6000000.00015
6000000.00001
5999999.99999
6000000.00002
6000000
6000000
6000000
5999999.99997
5999999.99994
5999999.99997
6000000.00009
6000000
6000000.00001
6000000.00007
6000000.00017
6000000.00007
6000000.00007
6000000.00009
6000000.00025
6000000.00004
6000000.00001
5999999.99994
6000000
6000000
6000000
5999999.99995
5999999.99994
6000000.00004
5999999.99995
6000000
5999999.99995
5999999.99994
5999999.99995
6000000
5999999.99995
6000000
5999999.99999
5999999.99995
6000000
6000000
5999999.99987
5999999.99996
5999999.99947
5999999.99998
6000000.00001
6000000.00001
6000000.00001
6000000.00002
6000000.00017
6000000.00002
5999999.99999
6000000.00001
5999999.99996
6000000
6000000.00002
6000000.00024
6000000.00127
5999999.99785
5999999.99839
6000000.00334
5999999.99943
6000000.0003
6000000.00032
5999999.99993
6000000
5999999.9999
6000000
5999999.99995
6000000.00001
5999999.99985
6000000.00009
6000000
6000000
5999999.99997
6000000.00005
6000000.0001
6000000.00109
6000000.00216
5999999.99998
6000000.00141
6000000.00258
6000000.00244
5999999.99936
5999999.99976
6000000.00001
5999999.99997
6000000
6000000.00006
6000000
5999999.99994
5999999.99997
6000000.00001
5999999.99996
6000000
5999999.99996
5999999.99997
6000000
6000000.00002
5999999.99983
5999999.99949
6000000.00077
5999999.99887
6000000.00158
6000000.00104
6000000.00072
5999999.99743
6000000.00249
6000000.00227
5999999.99777
5999999.99881
6000000.00165
6000000.00016
6000000.00226
6000000.00234
6000000.00118
6000000.0017
6000000.00065
6000000.00031
6000000.00062
5999999.99971
6000000.00051
5999999.99974
6000000.001
5999999.99904
6000000.00034
6000000.00356
6000000.00231
6000000.00027
5999999.99992
6000000
6000000.00001
6000000.00001
5999999.99923
6000000.00061
6000000.00019
6000000.00002
6000000
6000000
6000000.00001
6000000.00015
5999999.99955
6000000.00128
5999999.99768
6000000.0033
6000000.00396
5999999.99982
6000000.00032
6000000.00034
6000000.00004
6000000
6000000
6000000.00001
6000000
6000000
5999999.99995
6000000
5999999.99995
6000000
6000000.00001
5999999.99995
6000000.00011
6000000
5999999.99995
6000000
5999999.99999
5999999.99995
6000000
6000000
6000000.00002
5999999.99986
5999999.99957
6000000.00001
6000000.00001
5999999.99999
6000000.00001
6000000.00002
6000000.00017
6000000.00005
6000000
6000000.00001
5999999.99996
5999999.99994
6000000.00023
5999999.999
6000000.00131
5999999.99766
5999999.99828
6000000.00293
6000000.00161
6000000.00124
6000000.00105
6000000.00007
5999999.99926
5999999.99921
5999999.99947
5999999.99951
5999999.99825
6000000.00002
6000000.00006
5999999.99981
6000000
5999999.99994
6000000.00003
5999999.99973
6000000.00074
5999999.99871
5999999.99714
6000000.00105
5999999.99915
5999999.99899
5999999.99967
5999999.9999
6000000.00011
6000000.00001
6000000.00001
6000000.00001
5999999.99998
6000000.00031
5999999.99982
6000000.00014
6000000.00004
6000000
5999999.99978
5999999.9997
6000000
5999999.99987
6000000
6000000
6000000.00001
6000000.00004
6000000.00013
5999999.99999
5999999.99999
6000000.00013
6000000
6000000.00001
5999999.99999
6000000
6000000.00001
6000000.00004
6000000.00001
6000000
6000000.00007
6000000.00002
5999999.99987
6000000
5999999.99999
6000000
6000000.00001
6000000
5999999.99997
5999999.99997
6000000.00071
5999999.99932
6000000.0013
5999999.9986
5999999.99827
6000000.00308
6000000.00107
5999999.99868
5999999.99991
5999999.99997
5999999.99998
6000000.0001
5999999.99999
6000000.00013
5999999.99992
5999999.99995
6000000.00001
5999999.99993
6000000.00007
5999999.99993
6000000.00005
6000000.00117
5999999.99889
5999999.99924
5999999.99954
5999999.99963
6000000.00077
6000000.00117
5999999.99773
5999999.99756
6000000.00121
6000000.00319
5999999.99679
5999999.99709
6000000.00009
6000000.00071
5999999.99914
5999999.99969
5999999.99988
6000000.00012
6000000.00001
6000000
6000000.00001
6000000
6000000.00002
5999999.99995
5999999.99995
6000000
6000000.00001
6000000.00011
6000000.00001
6000000
5999999.99995
5999999.99995
6000000.00002
6000000
6000000
6000000.00001
6000000
5999999.99992
6000000
6000000.00001
6000000
5999999.99996
6000000.00003
6000000.00017
5999999.99997
6000000
6000000.00005
5999999.99957
6000000.00015
6000000.00005
6000000.00015
6000000.00026
6000000.00006
6000000
6000000
5999999.99997
6000000.00001
5999999.9999
6000000.00014
6000000.00234
6000000.00132
5999999.99808
5999999.9966
6000000.00134
6000000.00121
6000000.0009
6000000.00083
5999999.99978
5999999.99997
6000000
6000000
5999999.99995
5999999.99992
5999999.99999
5999999.99977
5999999.99999
5999999.99995
5999999.99994
6000000.00011
6000000.00003
5999999.99983
5999999.99997
6000000
5999999.99995
6000000.00006
6000000
6000000
5999999.99996
6000000
6000000
5999999.99987
6000000
6000000
6000000.00001
6000000.00006
6000000
6000000.00007
6000000
5999999.99996
6000000.00001
6000000.00021
5999999.99956
6000000.00082
5999999.99902
5999999.99983
6000000.00298
6000000.00202
6000000.0015
6000000.00119
6000000.00077
5999999.99956
5999999.99965
5999999.99976
5999999.99978
5999999.99992
6000000.00372
5999999.99727
5999999.99771
5999999.99677
6000000.00095
6000000.00066
6000000.00056
6000000.00007
6000000.00013
6000000.00006
6000000.00008
6000000.00001
5999999.99986
6000000
6000000.00001
6000000
6000000.00001
6000000.00001
6000000.00003
5999999.99964
6000000.00114
5999999.99973
5999999.99998
5999999.99937
6000000.00053
5999999.99837
5999999.99839
6000000.00063
5999999.99708
5999999.99661
6000000.00317
6000000.00186
5999999.99881
6000000.00027
6000000.00006
5999999.99997
6000000.00017
6000000.00002
6000000
6000000
6000000
6000000
6000000
6000000
6000000.00001
6000000.00007
6000000.00013
6000000.00013
6000000.00001
6000000
6000000
6000000.00001
6000000.0002
5999999.99965
6000000.00065
6000000.00085
6000000.00017
6000000.00073
6000000.00022
6000000.00048
5999999.99989
6000000.00008
5999999.99965
6000000.00005
5999999.99998
6000000.00088
5999999.99994
5999999.99997
5999999.99999
5999999.99998
5999999.99995
6000000
5999999.99998
6000000.00004
6000000.0001
5999999.99993
6000000
5999999.99998
6000000.00004
6000000
6000000
5999999.99999
6000000
6000000.0001
6000000.00038
5999999.99917
6000000.00025
6000000.00009
6000000.00004
6000000
6000000
5999999.99999
6000000
6000000
5999999.99959
5999999.99993
6000000
6000000
6000000
5999999.99996
6000000
6000000
6000000
5999999.99997
5999999.99999
6000000
6000000
5999999.99994
6000000
6000000.00003
6000000
6000000
6000000
6000000
5999999.99999
6000000
6000000
6000000.0001
6000000
6000000.00006
6000000
6000000.00001
5999999.99959
6000000.00062
5999999.99892
5999999.99993
6000000.00027
6000000.00029
6000000.00076
5999999.99946
6000000.00007
5999999.99993
6000000
5999999.99996
5999999.99995
6000000.00008
5999999.99978
6000000
6000000.00001
6000000.00001
6000000.00014
6000000.00019
6000000.00007
5999999.99984
5999999.99967
6000000.0005
5999999.99839
6000000.00109
5999999.99752
6000000.00238
6000000.00409
5999999.99836
5999999.99978
5999999.99871
6000000.00037
5999999.99992
6000000.00097
5999999.99842
5999999.99703
6000000.00325
5999999.99871
5999999.99901
5999999.99953
5999999.99926
5999999.99981
5999999.99909
5999999.99712
5999999.99702
6000000.00285
5999999.99807
5999999.99793
5999999.99881
5999999.99854
5999999.99956
5999999.99837
6000000.00073
6000000.00016
5999999.99994
6000000
6000000
5999999.99994
6000000.00001
6000000.00012
5999999.99999
5999999.99997
5999999.99993
6000000.00025
5999999.99896
5999999.99658
6000000.00334
5999999.99837
5999999.99816
6000000.00282
5999999.99783
5999999.99675
6000000.00033
6000000.00002
6000000
6000000.00013
6000000.00001
6000000
6000000
6000000.00001
5999999.99991
6000000.00009
6000000.00001
6000000
6000000.00001
5999999.99994
6000000
6000000
6000000
5999999.99992
5999999.99963
6000000.00004
5999999.99979
6000000.00001
5999999.99995
5999999.99993
6000000
6000000.00001
5999999.99995
5999999.99998
6000000.00002
5999999.99978
6000000.00007
6000000
5999999.99996
6000000.00006
6000000
6000000.00024
5999999.99976
5999999.99967
6000000.00001
6000000.00001
6000000.00006
6000000
5999999.99996
6000000.00013
6000000.00017
6000000.00002
5999999.99995
5999999.99999
5999999.99995
6000000.00013
6000000.00001
6000000.00033
5999999.99996
6000000.00024
6000000.00013
6000000.00127
5999999.99799
5999999.99697
6000000.00346
6000000.00027
6000000.00034
6000000.00002
6000000.00004
6000000.0001
6000000.00001
6000000.0001
5999999.99997
5999999.99995
6000000
6000000.00001
5999999.99999
5999999.99999
5999999.99999
6000000
6000000.00001
6000000.00004
6000000
6000000
6000000
6000000
6000000.00004
6000000
6000000
6000000
6000000
6000000.00004
6000000
6000000
6000000.00004
6000000
6000000
5999999.99996
6000000
6000000
6000000
5999999.99997
5999999.99996
6000000
6000000
6000000
6000000.0001
5999999.99999
6000000
6000000
6000000
6000000
6000000.00003
6000000
6000000
6000000
6000000
5999999.99999
6000000
6000000
6000000.0001
6000000
5999999.99995
6000000
5999999.99995
5999999.99995
6000000.00296
5999999.99694
5999999.99729
6000000.00086
6000000
6000000
6000000.00001
5999999.99995
6000000.00001
6000000
6000000.00009
6000000
6000000.00001
6000000.00001
5999999.99993
6000000.00009
6000000.00009
6000000.00009
6000000.00002
5999999.99995
6000000.00001
5999999.99994
6000000.00001
6000000
6000000
5999999.99995
5999999.99993
6000000.00011
5999999.99994
6000000.00014
5999999.99979
5999999.99993
6000000
6000000.00001
5999999.99993
6000000.00007
5999999.99989
5999999.99827
6000000.0012
5999999.99873
5999999.99723
6000000.00322
5999999.99895
5999999.99999
5999999.99995
6000000.00011
6000000.00005
5999999.99995
6000000.00009
5999999.99994
5999999.99997
6000000.00013
6000000.00009
6000000.00001
5999999.99995
6000000
6000000
5999999.99994
6000000.00001
6000000.00012
5999999.99999
6000000.00008
5999999.99994
5999999.99996
6000000
5999999.99992
6000000.00001
5999999.99995
5999999.99998
5999999.99999
5999999.99999
6000000
6000000.00014
6000000
5999999.99999
5999999.99997
5999999.99999
6000000
5999999.99995
5999999.99996
6000000.00009
5999999.99999
6000000
6000000.00006
5999999.99999
5999999.99999
6000000.00001
5999999.99999
6000000.00006
5999999.99996
5999999.99999
5999999.99986
5999999.99992
6000000.00006
5999999.99999
5999999.99999
5999999.99998
5999999.99999
5999999.99996
5999999.99999
5999999.99999
5999999.99996
5999999.99995
6000000.00002
5999999.99999
5999999.99999
5999999.99998
5999999.99999
6000000.00006
5999999.99995
5999999.99999
5999999.99998
6000000
5999999.99996
5999999.99999
5999999.99995
5999999.99996
5999999.99999
5999999.99998
5999999.99995
5999999.99999
5999999.99998
6000000.00014
5999999.99999
6000000.00003
6000000
5999999.99996
5999999.99999
6000000
6000000
5999999.99986
6000000.00014
6000000.00006
6000000.00006
6000000.00001
6000000.00006
6000000.00001
6000000
6000000.00025
6000000.00203
6000000.00175
6000000.0001
6000000.00186
6000000.0011
5999999.99792
6000000.00113
6000000.00039
6000000.00018
5999999.9998
5999999.99994
6000000.00001
5999999.99997
6000000.00001
5999999.99989
6000000.00012
6000000
5999999.99997
6000000.00001
5999999.99997
6000000.00002
5999999.99993
6000000.00039
5999999.99924
6000000.00074
6000000.00238
5999999.99887
6000000.0028
5999999.99782
5999999.99811
6000000.00114
5999999.99894
6000000.00271
5999999.99763
5999999.99994
6000000.00019
5999999.99979
5999999.99994
5999999.99997
5999999.99999
6000000.00002
5999999.99994
6000000.00006
5999999.99997
5999999.99998
5999999.99998
5999999.99997
6000000.00006
5999999.99998
5999999.99999
6000000.0001
5999999.99997
6000000
5999999.99996
5999999.99938
6000000.00005
5999999.99989
6000000.00044
6000000.00033
6000000.00043
5999999.99935
5999999.99958
6000000.00085
6000000.00118
5999999.99778
6000000.00003
6000000.00008
6000000.00037
6000000.00123
5999999.99783
5999999.99944
5999999.99936
6000000.00134
6000000.00447
5999999.99804
5999999.99975
5999999.99824
6000000.00053
5999999.99797
5999999.99796
5999999.99963
5999999.99806
5999999.99976
5999999.99908
5999999.99903
5999999.99907
6000000.00004
5999999.99852
5999999.99893
6000000.00306
6000000.00045
5999999.99817
5999999.99851
5999999.9987
5999999.99909
5999999.99893
5999999.99825
5999999.99975
5999999.99882
5999999.99679
6000000.00378
5999999.99909
5999999.99941
5999999.99932
5999999.99814
5999999.99768
6000000.00051
5999999.99859
5999999.99772
5999999.99984
5999999.99857
5999999.99992
6000000.0031
5999999.99762
5999999.99846
5999999.99803
5999999.99941
6000000.00158
5999999.9963
6000000.00333
6000000.0017
5999999.99928
6000000.0018
5999999.99725
5999999.99783
6000000.0004
5999999.99948
5999999.99988
5999999.99874
5999999.99882
6000000.00131
5999999.99868
5999999.99944
6000000.0012
5999999.99994
6000000.00077
6000000.00192
6000000.00129
6000000.00017
5999999.99919
5999999.99928
6000000.00236
6000000.0006
5999999.99787
5999999.99792
6000000.00006
6000000.00141
6000000.00073
5999999.99975
6000000.00056
6000000.00037
6000000.00084
5999999.9988
6000000
6000000.00026
5999999.99951
6000000.00063
5999999.99893
6000000.00011
5999999.9994
6000000.0003
6000000.00059
5999999.99852
5999999.99957
5999999.99994
5999999.99935
5999999.99909
6000000.00011
5999999.99984
5999999.9997
6000000.00013
5999999.99965
5999999.99984
5999999.99876
5999999.99928
5999999.99892
6000000.00031
5999999.99864
6000000.00192
6000000.00016
5999999.9994
6000000.00258
5999999.99818
6000000.00035
6000000.00065
6000000.00323
6000000.00038
6000000.00171
6000000.00429
6000000.00273
5999999.99787
5999999.99916
6000000.00494
6000000.00394
6000000.00205
6000000.00181
5999999.99668
6000000.00381
6000000.00318
6000000.00181
6000000.00144
6000000.00183
5999999.99798
6000000.00285
6000000.00256
6000000.00084
5999999.99955
6000000.00603
6000000.00157
5999999.99797
6000000.00218
6000000.00059
6000000.00603
6000000.00216
6000000.00003
6000000.00013
6000000.00544
6000000.00025
5999999.99866
6000000.00525
6000000.00465
6000000.00164
6000000.00354
6000000.00328
6000000.00196
5999999.99712
6000000.00219
6000000.00231
6000000.00437
6000000.00394
6000000.00238
6000000.00148
6000000.00271
6000000.00345
6000000.00138
6000000.00093
6000000.00433
5999999.9966
6000000.00376
6000000.00129
6000000.006
6000000.00205
6000000.00262
6000000.00332
5999999.99837
6000000.00266
6000000.00257
5999999.99767
6000000.00317
5999999.9991
5999999.99964
5999999.99958
5999999.99962
5999999.99943
5999999.99948
5999999.99927
5999999.99958
5999999.99904
5999999.99909
5999999.9989
5999999.99959
5999999.99939
5999999.9993
6000000.00015
5999999.99919
5999999.99868
5999999.99954
5999999.99983
5999999.99924
5999999.99893
5999999.99931
5999999.99931
5999999.99932
5999999.99847
5999999.99925
5999999.99882
5999999.99916
5999999.999
5999999.9986
5999999.99899
5999999.99983
5999999.9989
5999999.99876
5999999.99936
5999999.9986
5999999.9995
5999999.99928
5999999.999
5999999.99821
5999999.99917
5999999.99944
5999999.99907
5999999.9996
5999999.99929
5999999.99911
5999999.99888
5999999.99919
5999999.99828
5999999.99863
5999999.99951
5999999.99984
5999999.99975
5999999.99984
5999999.99943
5999999.99972
5999999.99878
5999999.99878
5999999.99883
5999999.99906
5999999.99937
5999999.99948
6000000.00105
5999999.99885
5999999.9997
5999999.99975
5999999.99987
5999999.99972
6000000.00034
5999999.99981
5999999.99993
6000000.00022
5999999.99992
5999999.99992
5999999.99975
5999999.99985
6000000.00017
6000000.00002
5999999.99989
5999999.99989
6000000.00011
6000000.00018
5999999.99983
6000000.00011
5999999.99992
6000000.00031
5999999.99977
5999999.99987
6000000.00018
5999999.99981
6000000.00026
6000000.00001
5999999.99999
5999999.99974
6000000.00012
6000000.00021
6000000.00004
6000000.00036
5999999.99986
6000000.00016
6000000.00024
5999999.99982
6000000.00001
5999999.99981
6000000.00026
6000000.00004
5999999.99978
6000000.00036
6000000.00002
6000000.0001
6000000.00037
5999999.99986
5999999.99973
5999999.99996
6000000.00007
6000000.00007
6000000.00025
6000000.00025
5999999.99991
5999999.99995
6000000.00017
6000000
6000000.0002
6000000.00005
6000000.00001
6000000.00021
5999999.99994
6000000.00017
6000000.00047
6000000.00058
6000000.00052
6000000.00057
6000000.0004
6000000.00053
6000000.00052
6000000.00078
6000000.00058
6000000.00047
6000000.00039
6000000.00056
6000000.00052
6000000.00051
6000000.00045
6000000.00053
6000000.00043
6000000.00064
6000000.00068
6000000.0004
6000000.00047
6000000.00058
6000000.00035
6000000.00048
6000000.00056
6000000.00051
6000000.0005
6000000.00043
6000000.00058
6000000.00055
6000000.00042
6000000.00062
6000000.00068
6000000.00062
6000000.00032
6000000.00056
6000000.00034
6000000.0005
6000000.00038
6000000.0004
6000000.00066
6000000.00051
6000000.00062
6000000.00067
6000000.00044
6000000.00048
6000000.00036
6000000.00055
6000000.00056
6000000.00059
6000000.00051
6000000.00048
6000000.00039
6000000.00057
6000000.00064
6000000.00052
6000000.00069
6000000.00071
6000000.00051
6000000.00061
6000000.00046
6000000.00061
6000000.00074
6000000.00058
5999999.99926
5999999.99931
5999999.99933
5999999.99938
5999999.9994
5999999.99949
5999999.99931
5999999.99935
5999999.9993
5999999.99915
5999999.99935
5999999.99936
5999999.99973
5999999.99931
5999999.99932
5999999.99941
5999999.99922
5999999.99938
5999999.99944
5999999.99933
5999999.99931
5999999.99919
5999999.99951
5999999.99946
5999999.99924
5999999.9993
5999999.99954
5999999.99925
5999999.99937
5999999.9994
5999999.99925
5999999.99964
5999999.99955
5999999.99943
5999999.99929
5999999.99931
5999999.99945
5999999.99913
5999999.99916
5999999.99933
5999999.99938
5999999.99942
5999999.99936
5999999.99935
5999999.99938
5999999.99925
5999999.99948
5999999.99944
5999999.99936
5999999.99937
5999999.99927
5999999.99926
5999999.99921
5999999.99916
5999999.99927
5999999.99939
5999999.99944
5999999.99942
5999999.99938
5999999.99934
5999999.99934
5999999.99929
5999999.99935
5999999.99923
5999999.99965
5999999.9996
5999999.99961
5999999.99983
5999999.99971
5999999.9998
5999999.99987
5999999.9996
5999999.99987
5999999.99974
5999999.99964
5999999.99951
5999999.99972
5999999.99978
5999999.99985
5999999.99988
5999999.99984
5999999.9996
5999999.99968
5999999.99958
5999999.99986
5999999.99959
5999999.9997
5999999.99946
5999999.99965
5999999.99965
5999999.99958
5999999.99966
5999999.99976
5999999.99995
5999999.99971
5999999.99973
5999999.99971
5999999.9997
5999999.99953
5999999.99958
5999999.99992
5999999.99967
5999999.99971
5999999.99956
5999999.99981
5999999.99974
5999999.9997
5999999.99981
5999999.99969
5999999.99962
5999999.99983
5999999.99966
5999999.99979
5999999.99976
5999999.99984
5999999.99981
5999999.99959
5999999.9996
5999999.99958
5999999.99968
5999999.99974
5999999.99942
5999999.99962
5999999.99961
5999999.99956
5999999.99966
5999999.99985
5999999.99972
6000000.00019
6000000.00018
6000000.00012
6000000.00006
6000000.00004
6000000.00004
6000000.00019
6000000.00002
6000000.00005
5999999.99997
5999999.99991
6000000.0001
6000000.00009
6000000.00027
6000000.00007
6000000.00015
6000000.00023
5999999.99999
5999999.99987
6000000.0001
6000000.00011
6000000.00022
6000000.00005
6000000.00032
6000000.00016
6000000.00001
6000000.00023
6000000.00013
6000000.00016
6000000.00038
6000000.00012
6000000.00025
5999999.99996
6000000.00015
6000000.00004
6000000.00002
6000000.00019
5999999.99998
6000000.00004
5999999.99992
6000000.00014