/*--------------------------------*- C++ -*----------------------------------*\
  =========                 |
  \\      /  F ield         | OpenFOAM: The Open Source CFD Toolbox
   \\    /   O peration     | Website:  https://openfoam.org
    \\  /    A nd           | Version:  6
     \\/     M anipulation  |
\*---------------------------------------------------------------------------*/
FoamFile
{
    version     2.0;
    format      ascii;
    class       volVectorField;
    location    "2.4e-05";
    object      U;
}
// * * * * * * * * * * * * * * * * * * * * * * * * * * * * * * * * * * * * * //

dimensions      [0 1 -1 0 0 0 0];

internalField   nonuniform List<vector> 
8192
(
(-88.3220000002 0 -1.25494117113e-10)
(-88.3219999998 0 -2.22492744156e-11)
(-88.322 0 -2.73714393772e-11)
(-88.322 0 -3.23822658647e-11)
(-88.322 0 -1.5455664671e-12)
(-88.322 0 -3.15310992373e-12)
(-88.322 0 -1.08495760671e-12)
(-88.322 0 -4.4845770487e-12)
(-88.322 0 -3.07235719893e-11)
(-88.322 0 -1.45291229609e-10)
(-88.322 0 -1.31037174564e-10)
(-88.322 0 6.03001243205e-11)
(-88.322 0 1.12446728923e-10)
(-88.322 0 -1.06295402808e-10)
(-88.322 0 -2.49780017155e-10)
(-88.322 0 6.40684808048e-11)
(-88.322 0 -3.84451295056e-11)
(-88.322 0 1.2947516716e-10)
(-88.322 0 -1.70584939022e-10)
(-88.322 0 -1.07480793655e-10)
(-88.322 0 1.33034285532e-10)
(-88.322 0 1.28643733289e-10)
(-88.322 0 -4.39507336651e-11)
(-88.322 0 -6.28733749316e-11)
(-88.322 0 1.12300127877e-11)
(-88.322 0 5.32504498044e-12)
(-88.322 0 1.27337061326e-11)
(-88.322 0 1.4612011153e-11)
(-88.322 0 8.03107925726e-12)
(-88.322 0 -1.25855705852e-11)
(-88.322 0 2.98118460077e-11)
(-88.322 0 1.50362897454e-11)
(-88.3219999997 0 -2.13002437182e-11)
(-88.3220000002 0 1.43567143096e-10)
(-88.3220000005 0 -9.90080603162e-11)
(-88.3219999998 0 -1.18412770972e-10)
(-88.322 0 1.30823193593e-11)
(-88.3219999999 0 -1.35188354112e-10)
(-88.3219999997 0 5.76031130015e-11)
(-88.3220000001 0 -7.79329987316e-13)
(-88.322 0 1.29538860819e-11)
(-88.322 0 -1.4904603886e-12)
(-88.322 0 -9.10621786246e-12)
(-88.322 0 -3.89856448756e-12)
(-88.322 0 -2.05214429211e-11)
(-88.322 0 -7.14894878797e-12)
(-88.322 0 -3.23078826375e-12)
(-88.322 0 -6.54039106466e-13)
(-88.322 0 2.18225210306e-12)
(-88.322 0 -1.03051488856e-11)
(-88.322 0 -1.81808817192e-12)
(-88.322 0 -1.15852436217e-11)
(-88.322 0 -8.62789176029e-12)
(-88.3219999999 0 3.1883964523e-11)
(-88.3220000001 0 3.00049488972e-11)
(-88.3220000001 0 -4.5233805473e-11)
(-88.322 0 6.99493107978e-13)
(-88.322 0 -2.25896383337e-11)
(-88.322 0 -1.06006850044e-11)
(-88.3219999998 0 -1.48350461327e-11)
(-88.3219999997 0 6.68260387752e-11)
(-88.3219999999 0 1.28226668772e-10)
(-88.3220000002 0 1.30920102787e-10)
(-88.3220000005 0 6.3256430316e-11)
(-88.322 0 4.86289798273e-11)
(-88.322 0 -4.09243810929e-12)
(-88.322 0 1.548394944e-11)
(-88.322 0 7.01289814379e-12)
(-88.322 0 3.90232885216e-12)
(-88.322 0 -3.60059789493e-13)
(-88.322 0 -2.30818330039e-13)
(-88.322 0 7.85499420132e-14)
(-88.3220000003 0 -7.03557447439e-13)
(-88.3220000002 0 -1.02089981914e-11)
(-88.3219999996 0 -1.3275158877e-12)
(-88.3219999995 0 -1.92502730958e-11)
(-88.3220000003 0 -1.48894781147e-12)
(-88.3220000007 0 -7.38078946019e-12)
(-88.3219999997 0 -2.85740382235e-11)
(-88.3219999996 0 1.58551546882e-11)
(-88.3219999999 0 3.46025237854e-13)
(-88.3220000003 0 5.47343656034e-12)
(-88.3220000004 0 -1.94597706279e-11)
(-88.3219999994 0 -8.49951108191e-12)
(-88.3219999996 0 -7.06217795393e-13)
(-88.3220000004 0 9.92324682361e-12)
(-88.3220000004 0 2.70802565637e-11)
(-88.3219999999 0 -2.03524026638e-11)
(-88.3219999999 0 1.06775324479e-10)
(-88.322 0 -7.84858293494e-11)
(-88.322 0 8.35995767605e-11)
(-88.322 0 6.96179214728e-11)
(-88.322 0 4.97298944804e-11)
(-88.322 0 1.94888026053e-11)
(-88.322 0 -6.33791744216e-12)
(-88.322 0 -1.74023240636e-11)
(-88.322 0 1.01993673799e-11)
(-88.322 0 -1.34035688754e-10)
(-88.322 0 7.21712168866e-11)
(-88.322 0 9.84810506839e-11)
(-88.322 0 -2.26645774741e-11)
(-88.322 0 5.25249705741e-11)
(-88.322 0 -5.13905977546e-11)
(-88.322 0 -1.47568342741e-12)
(-88.322 0 4.36314876763e-12)
(-88.322 0 -1.9168494378e-12)
(-88.322 0 -4.15498343263e-12)
(-88.322 0 1.18027362178e-11)
(-88.322 0 -8.75038878179e-11)
(-88.322 0 -5.29298168552e-11)
(-88.322 0 -9.18688847996e-11)
(-88.322 0 -6.88988710953e-11)
(-88.322 0 -6.84633038315e-11)
(-88.322 0 -5.48741624518e-11)
(-88.322 0 5.26442071945e-11)
(-88.322 0 1.43978342766e-11)
(-88.322 0 3.39056148084e-12)
(-88.322 0 6.69141363488e-12)
(-88.322 0 -5.96838481725e-11)
(-88.322 0 1.23489737024e-10)
(-88.322 0 -3.96570772548e-11)
(-88.322 0 -1.42561875392e-10)
(-88.322 0 -1.8028181294e-10)
(-88.322 0 6.69325387903e-11)
(-88.322 0 3.81401709016e-11)
(-88.322 0 -2.79850969179e-10)
(-88.322 0 -2.57886638984e-10)
(-88.322 0 -1.08866081292e-10)
(-88.322 0 7.96054537776e-12)
(-88.3219999999 0 4.21413060912e-12)
(-88.322 0 -2.78935257709e-12)
(-88.322 0 2.31093319855e-11)
(-88.322 0 5.07590861204e-12)
(-88.322 0 9.17925703666e-12)
(-88.322 0 2.14111894398e-12)
(-88.322 0 7.76917598507e-12)
(-88.322 0 1.94294378811e-11)
(-88.322 0 1.40082937047e-10)
(-88.322 0 1.27124050851e-10)
(-88.322 0 -5.69015946868e-11)
(-88.322 0 -1.17493545337e-10)
(-88.322 0 8.76680516959e-11)
(-88.3219999999 0 2.38272303015e-10)
(-88.3219999999 0 -6.34923804933e-11)
(-88.322 0 3.67812163687e-11)
(-88.322 0 -1.17270423131e-10)
(-88.322 0 1.6691113437e-10)
(-88.322 0 9.75657160649e-11)
(-88.322 0 -1.3182822079e-10)
(-88.3219999999 0 -1.15721220833e-10)
(-88.3220000001 0 5.78542830451e-11)
(-88.3219999999 0 6.38547019502e-11)
(-88.3220000001 0 3.48145160582e-12)
(-88.322 0 -5.69811895538e-12)
(-88.3219999997 0 1.15154619223e-12)
(-88.3220000001 0 1.71143130044e-12)
(-88.3220000001 0 5.70875970735e-11)
(-88.3220000001 0 -5.23266469175e-11)
(-88.322 0 4.89890373983e-11)
(-88.322 0 9.83485388586e-12)
(-88.322 0 -3.98667323959e-11)
(-88.322 0 6.49277179604e-11)
(-88.322 0 1.37229839153e-10)
(-88.322 0 -6.557132259e-12)
(-88.3220000001 0 -1.10657499499e-10)
(-88.322 0 1.40755938555e-10)
(-88.3219999999 0 1.51583084914e-10)
(-88.322 0 -1.63118663595e-10)
(-88.322 0 -1.17036043023e-10)
(-88.322 0 -2.41533164888e-11)
(-88.322 0 -4.89368412078e-11)
(-88.3220000002 0 -1.50887577764e-11)
(-88.3220000001 0 -2.98355054428e-11)
(-88.322 0 3.24895490325e-12)
(-88.322 0 -8.52493247419e-11)
(-88.3219999999 0 -2.11389319537e-10)
(-88.322 0 4.63875151916e-11)
(-88.3219999998 0 4.73400388836e-12)
(-88.3219999999 0 -3.98200789654e-11)
(-88.3220000001 0 4.55276581381e-11)
(-88.322 0 -1.05211475918e-10)
(-88.322 0 6.01295122062e-11)
(-88.3219999999 0 -1.24331092083e-11)
(-88.322 0 -8.72816956471e-11)
(-88.3220000005 0 -6.2513977665e-11)
(-88.3220000003 0 -5.40780769677e-11)
(-88.3219999996 0 -4.06381568035e-11)
(-88.3219999994 0 -3.13632045866e-11)
(-88.3220000004 0 -1.90774938796e-11)
(-88.3220000004 0 1.42290798798e-11)
(-88.3219999998 0 -1.34259705803e-12)
(-88.3219999999 0 7.08064859907e-12)
(-88.322 0 7.92001513312e-11)
(-88.322 0 2.52924047852e-11)
(-88.322 0 9.24946046982e-12)
(-88.322 0 1.59671218111e-11)
(-88.322 0 -1.12605560249e-11)
(-88.322 0 -5.2388106761e-13)
(-88.322 0 8.37460655513e-13)
(-88.322 0 8.53719358912e-12)
(-88.322 0 2.72001604117e-12)
(-88.322 0 1.98938687864e-11)
(-88.322 0 4.87847292997e-12)
(-88.322 0 9.05371849777e-12)
(-88.322 0 9.20365201244e-12)
(-88.322 0 2.57249405903e-11)
(-88.322 0 3.4507708958e-11)
(-88.322 0 -2.15540600896e-11)
(-88.322 0 2.33416104818e-13)
(-88.322 0 -1.51990910337e-11)
(-88.322 0 2.00865793939e-11)
(-88.322 0 2.80695570045e-11)
(-88.322 0 -6.39938301596e-11)
(-88.322 0 -2.2119398737e-10)
(-88.322 0 5.31962457206e-11)
(-88.322 0 6.88875102531e-11)
(-88.322 0 -5.78302405492e-11)
(-88.322 0 1.13621949605e-10)
(-88.322 0 -6.3834488274e-11)
(-88.3219999999 0 -5.50609306778e-11)
(-88.3220000001 0 -4.6625748584e-11)
(-88.322 0 -1.55330334384e-11)
(-88.3219999999 0 1.66258820401e-11)
(-88.3220000002 0 -1.58733871942e-11)
(-88.3219999999 0 -4.10320690574e-12)
(-88.3219999997 0 -4.16359717128e-12)
(-88.3220000001 0 1.47260948488e-11)
(-88.3220000005 0 1.85735944499e-11)
(-88.3219999997 0 -4.90613130857e-12)
(-88.3219999995 0 8.11739580063e-11)
(-88.3220000006 0 -2.96574061893e-12)
(-88.3220000005 0 -5.00480299601e-13)
(-88.3219999997 0 -6.36210700856e-12)
(-88.3219999999 0 -4.19847941127e-12)
(-88.322 0 2.9571321496e-12)
(-88.322 0 -8.66119489799e-12)
(-88.322 0 1.04819155751e-10)
(-88.3220000001 0 5.49252049436e-11)
(-88.3220000004 0 9.0256945695e-11)
(-88.3219999997 0 6.25324002429e-11)
(-88.3219999996 0 6.94965068355e-11)
(-88.3220000002 0 5.70647085587e-11)
(-88.3219999999 0 -5.2092488215e-11)
(-88.3220000001 0 4.9913230403e-12)
(-88.3219999999 0 -3.2564972574e-11)
(-88.3219999998 0 9.36558414523e-11)
(-88.3220000003 0 1.41407875391e-10)
(-88.3220000001 0 -1.86192605698e-10)
(-88.322 0 -2.16921173097e-11)
(-88.322 0 1.60146190761e-10)
(-88.322 0 1.06713760755e-10)
(-88.3219999999 0 -3.3529501565e-11)
(-88.3219999999 0 -1.99412628951e-10)
(-88.322 0 2.63039526434e-10)
(-88.322 0 1.50664748947e-10)
(-88.322 0 7.67814471097e-11)
(-88.322 0 -3.44698506329e-11)
(-88.322 0 -8.54024443133e-12)
(-88.322 0 8.69301349885e-12)
(-88.322 0 3.19930539385e-12)
(-88.322 0 -9.92491710397e-12)
(-88.322 0 2.67446785056e-12)
(-88.322 0 3.16973820406e-12)
(-88.322 0 1.37364726031e-11)
(-88.322 0 8.96693458453e-12)
(-88.322 0 2.13456447442e-12)
(-88.322 0 3.74187824516e-12)
(-88.322 0 -2.75587199505e-11)
(-88.322 0 -3.50319311199e-11)
(-88.322 0 -5.93384311647e-12)
(-88.322 0 3.35584174292e-12)
(-88.322 0 3.47539405196e-12)
(-88.322 0 8.2976116271e-12)
(-88.322 0 3.75152147721e-12)
(-88.322 0 -6.07737026712e-13)
(-88.3220000001 0 6.22466065323e-12)
(-88.3220000004 0 1.80418017806e-12)
(-88.3219999997 0 2.20331536306e-13)
(-88.3219999995 0 2.87905512906e-12)
(-88.3220000001 0 -1.6572430434e-11)
(-88.322 0 7.46654293908e-12)
(-88.3220000001 0 5.64828567844e-12)
(-88.322 0 4.08270687018e-11)
(-88.322 0 3.76689484075e-11)
(-88.322 0 6.53720470683e-11)
(-88.322 0 2.22868995249e-11)
(-88.322 0 3.53302760686e-11)
(-88.322 0 6.47719666459e-11)
(-88.322 0 -1.56375397687e-11)
(-88.322 0 -7.87758670268e-11)
(-88.322 0 -1.92824361503e-10)
(-88.322 0 -7.25422902136e-11)
(-88.322 0 1.16796955436e-10)
(-88.322 0 -1.65239828753e-10)
(-88.322 0 -1.49789335073e-10)
(-88.322 0 1.43523345825e-10)
(-88.322 0 9.36371206874e-11)
(-88.322 0 2.64765588472e-11)
(-88.322 0 3.85503330798e-11)
(-88.322 0 1.23794682831e-11)
(-88.322 0 1.32633502367e-11)
(-88.322 0 -3.41852773829e-12)
(-88.322 0 7.92337943679e-11)
(-88.322 0 1.95045414997e-10)
(-88.322 0 -4.21244904677e-11)
(-88.322 0 -7.64955188155e-12)
(-88.322 0 3.63242033488e-11)
(-88.3220000001 0 -2.85597133888e-11)
(-88.3219999998 0 8.3699653004e-11)
(-88.3219999997 0 -6.15724754144e-11)
(-88.3220000005 0 -1.34656667206e-11)
(-88.3220000004 0 -6.25007689852e-11)
(-88.3219999998 0 -5.68135826456e-11)
(-88.322 0 5.40746297974e-11)
(-88.3219999999 0 -1.66679317692e-10)
(-88.322 0 1.62938053322e-10)
(-88.3219999998 0 7.6397301701e-11)
(-88.3219999998 0 7.3543444178e-11)
(-88.3220000002 0 4.08243210337e-11)
(-88.322 0 3.07672846203e-11)
(-88.3220000001 0 -6.14828879644e-12)
(-88.322 0 -9.77503270688e-12)
(-88.322 0 3.45324630944e-11)
(-88.322 0 1.58429690563e-10)
(-88.322 0 -1.09956257918e-10)
(-88.322 0 1.38035595722e-10)
(-88.322 0 1.80289894759e-10)
(-88.322 0 -4.18087209128e-11)
(-88.322 0 -6.94089363821e-12)
(-88.322 0 9.79913787007e-12)
(-88.322 0 -3.46539843413e-13)
(-88.322 0 1.63044658441e-11)
(-88.322 0 2.92964559788e-11)
(-88.322 0 -3.90814212599e-11)
(-88.322 0 1.16630318459e-10)
(-88.322 0 1.12935711472e-10)
(-88.322 0 8.01149657268e-11)
(-88.322 0 5.00685342958e-11)
(-88.322 0 -1.76715156523e-11)
(-88.322 0 -3.01075280678e-11)
(-88.322 0 1.65309143083e-10)
(-88.322 0 2.99685082747e-10)
(-88.322 0 -9.24463830805e-11)
(-88.322 0 -1.43235350009e-10)
(-88.322 0 -8.88920104838e-11)
(-88.3219999999 0 1.31209897135e-10)
(-88.3219999999 0 7.21132555894e-11)
(-88.3219999999 0 -8.3758493619e-12)
(-88.3220000002 0 9.52968494196e-11)
(-88.3220000001 0 5.73939555288e-11)
(-88.3219999998 0 4.8621837492e-11)
(-88.3220000003 0 -8.20966917857e-11)
(-88.3220000001 0 1.57683696458e-11)
(-88.322 0 3.98637365993e-12)
(-88.3220000001 0 -2.66393504437e-12)
(-88.3219999998 0 -1.76468653027e-12)
(-88.3219999999 0 4.98808918332e-12)
(-88.322 0 3.34752779094e-12)
(-88.322 0 -1.88554440744e-12)
(-88.322 0 1.63026288274e-11)
(-88.322 0 6.56685867103e-12)
(-88.322 0 -6.49779708069e-12)
(-88.322 0 7.56651492533e-13)
(-88.322 0 7.4284850869e-13)
(-88.322 0 7.65091155431e-14)
(-88.322 0 -1.31468782216e-13)
(-88.322 0 9.61530465539e-14)
(-88.322 0 1.69857956059e-11)
(-88.322 0 -6.75584575118e-12)
(-88.322 0 -1.09265354272e-12)
(-88.322 0 2.64962846408e-12)
(-88.322 0 -8.87144980067e-12)
(-88.322 0 6.13858591519e-11)
(-88.322 0 -1.14642634116e-10)
(-88.3220000003 0 -1.03569449372e-10)
(-88.3220000001 0 1.11026096905e-10)
(-88.3219999997 0 7.08024774145e-11)
(-88.3220000002 0 9.26380035974e-12)
(-88.3219999997 0 8.10801862219e-11)
(-88.3219999995 0 -2.03614020038e-11)
(-88.3220000001 0 9.45259651172e-11)
(-88.3220000001 0 -9.96137985769e-11)
(-88.3220000001 0 -5.41574747998e-12)
(-88.3220000001 0 -2.75854014606e-11)
(-88.322 0 4.01299072923e-11)
(-88.3219999999 0 5.22661163564e-12)
(-88.3219999996 0 -9.95985250764e-12)
(-88.3220000003 0 4.38614624447e-13)
(-88.322 0 1.09242395092e-12)
(-88.3219999994 0 -5.71274272992e-13)
(-88.3220000004 0 -8.59785541284e-12)
(-88.3220000004 0 -8.27827933873e-12)
(-88.3219999999 0 1.49548396073e-11)
(-88.322 0 -5.96812385417e-11)
(-88.322 0 8.84902027185e-11)
(-88.322 0 -1.46191236435e-10)
(-88.3220000001 0 -2.09952362695e-10)
(-88.3219999998 0 -3.82730974977e-11)
(-88.3219999997 0 -4.54011951158e-11)
(-88.3220000001 0 -1.56155276547e-11)
(-88.3220000001 0 -4.40818639876e-12)
(-88.3220000002 0 -5.3484259885e-12)
(-88.3220000001 0 1.46386650674e-12)
(-88.3219999998 0 -7.02490410131e-13)
(-88.3219999998 0 -4.03903731449e-13)
(-88.3220000002 0 -2.59133303554e-13)
(-88.3220000004 0 -2.3014223864e-12)
(-88.322 0 1.45657188591e-11)
(-88.3219999995 0 -1.93158337876e-11)
(-88.3219999997 0 -4.1485676591e-13)
(-88.3220000003 0 -4.64582452744e-11)
(-88.322 0 -3.61535841773e-11)
(-88.3219999999 0 -1.23075095265e-10)
(-88.322 0 2.79925930337e-11)
(-88.3220000003 0 -9.49635530711e-11)
(-88.3220000001 0 -1.04671636997e-10)
(-88.3219999998 0 1.26621141019e-10)
(-88.322 0 4.83154668985e-11)
(-88.322 0 -8.264513513e-11)
(-88.322 0 1.0627483637e-12)
(-88.322 0 -5.04979126491e-11)
(-88.322 0 2.10739272882e-10)
(-88.322 0 2.67704907403e-11)
(-88.322 0 -3.99695901817e-11)
(-88.322 0 -7.89024218852e-15)
(-88.322 0 1.55916488841e-12)
(-88.322 0 2.00846343561e-13)
(-88.322 0 5.75935635822e-12)
(-88.322 0 1.73819333947e-11)
(-88.322 0 4.61951407855e-13)
(-88.322 0 -3.99755082868e-14)
(-88.322 0 -3.14345991684e-13)
(-88.322 0 9.80526270185e-13)
(-88.322 0 5.27643079833e-13)
(-88.322 0 5.1840471975e-12)
(-88.322 0 -5.53075076621e-13)
(-88.322 0 5.14669693973e-12)
(-88.322 0 -1.53876734113e-11)
(-88.322 0 1.27510458652e-11)
(-88.322 0 1.19434672602e-10)
(-88.322 0 8.24367640093e-11)
(-88.322 0 -8.05954478277e-12)
(-88.322 0 2.08142490522e-10)
(-88.322 0 -1.13704094071e-10)
(-88.322 0 -5.15210073094e-11)
(-88.322 0 3.14313096072e-11)
(-88.322 0 4.50468472692e-11)
(-88.322 0 -1.06060343296e-11)
(-88.322 0 3.36362722366e-11)
(-88.322 0 1.54337257629e-11)
(-88.322 0 -3.47475031042e-11)
(-88.322 0 -1.50441090305e-10)
(-88.322 0 1.2186931629e-10)
(-88.322 0 -1.36284492746e-10)
(-88.322 0 -1.80531093556e-10)
(-88.322 0 4.1408119069e-11)
(-88.3220000001 0 7.03142262658e-12)
(-88.3219999998 0 -1.82094907396e-11)
(-88.3220000002 0 3.08742408564e-12)
(-88.3220000006 0 -8.93737830976e-12)
(-88.3219999998 0 -1.06765123075e-11)
(-88.3219999996 0 2.3981492619e-11)
(-88.3219999999 0 -1.17651905623e-10)
(-88.3219999999 0 -1.00583921986e-10)
(-88.322 0 -7.38621545781e-11)
(-88.322 0 -4.25773395957e-11)
(-88.322 0 1.93635783437e-11)
(-88.322 0 1.12363068023e-11)
(-88.322 0 -9.38194502639e-11)
(-88.322 0 -8.9912324825e-11)
(-88.322 0 1.35706842689e-11)
(-88.322 0 9.63366659847e-11)
(-88.322 0 4.04408941622e-11)
(-88.322 0 -1.58468614183e-10)
(-88.322 0 -9.19351961812e-11)
(-88.322 0 -8.19496056799e-12)
(-88.322 0 -1.01037317241e-10)
(-88.322 0 -5.70838333676e-11)
(-88.322 0 -7.10119480354e-11)
(-88.3219999999 0 9.89990819594e-11)
(-88.3219999999 0 -7.32680471182e-12)
(-88.3220000004 0 -1.99465922853e-12)
(-88.3220000002 0 -4.84198646431e-12)
(-88.3219999998 0 3.82621982856e-13)
(-88.3219999995 0 1.79475077689e-11)
(-88.3219999999 0 -3.25232209285e-12)
(-88.3220000005 0 6.69196625482e-12)
(-88.3220000001 0 -1.30895530066e-11)
(-88.3219999999 0 -4.47578048347e-12)
(-88.322 0 1.25364101816e-11)
(-88.322 0 1.15205806904e-12)
(-88.322 0 -2.9424720544e-12)
(-88.322 0 -1.78119219541e-11)
(-88.322 0 -4.57103642828e-12)
(-88.322 0 1.2543826185e-12)
(-88.322 0 -1.18821430829e-11)
(-88.322 0 5.16618297933e-12)
(-88.322 0 1.67658058227e-12)
(-88.322 0 -5.88429795842e-12)
(-88.322 0 -1.29983426764e-12)
(-88.322 0 -3.56705867288e-11)
(-88.322 0 1.25206409039e-10)
(-88.322 0 1.00092227525e-10)
(-88.322 0 -1.59646417491e-10)
(-88.322 0 -9.8724365771e-11)
(-88.322 0 -1.66632174308e-11)
(-88.322 0 -9.68154445898e-11)
(-88.322 0 3.47266618143e-11)
(-88.3219999998 0 -9.12420514748e-11)
(-88.3219999999 0 1.03405550936e-10)
(-88.3220000002 0 8.27475858609e-12)
(-88.3220000001 0 1.60439526922e-11)
(-88.322 0 -3.28947010703e-11)
(-88.322 0 -1.07164454731e-11)
(-88.322 0 5.25000064177e-12)
(-88.322 0 -3.3870709327e-12)
(-88.322 0 2.90781140813e-12)
(-88.322 0 3.78594124027e-12)
(-88.322 0 2.68909096643e-12)
(-88.322 0 -5.6127023366e-12)
(-88.322 0 -1.73993382411e-11)
(-88.322 0 4.8444763874e-11)
(-88.322 0 -9.37290916816e-11)
(-88.322 0 1.69511972223e-10)
(-88.322 0 2.50663461943e-10)
(-88.322 0 4.01202108722e-11)
(-88.322 0 4.2709978261e-11)
(-88.322 0 1.20574494087e-11)
(-88.322 0 -3.9093109835e-12)
(-88.322 0 5.45643331143e-12)
(-88.322 0 4.19050109616e-13)
(-88.322 0 4.90821165494e-14)
(-88.322 0 -2.54142542355e-12)
(-88.322 0 3.63259706411e-12)
(-88.322 0 5.00745336989e-12)
(-88.322 0 9.87354744386e-13)
(-88.322 0 5.15765797227e-12)
(-88.322 0 -4.7943548222e-12)
(-88.322 0 4.2610213472e-12)
(-88.322 0 5.19347034135e-12)
(-88.322 0 -4.6257242545e-12)
(-88.322 0 8.73295880264e-12)
(-88.322 0 5.40111956527e-12)
(-88.322 0 2.00598659173e-11)
(-88.322 0 -5.53522066454e-11)
(-88.322 0 1.13244916019e-10)
(-88.322 0 5.75081144065e-11)
(-88.322 0 -1.36105765032e-11)
(-88.322 0 2.90206267406e-11)
(-88.322 0 -2.81395788625e-10)
(-88.322 0 -1.15656837175e-11)
(-88.322 0 5.49389347216e-11)
(-88.322 0 9.39883590705e-12)
(-88.322 0 -2.99248796973e-12)
(-88.322 0 1.32083447458e-11)
(-88.322 0 -9.77673356811e-12)
(-88.322 0 -1.57755632086e-11)
(-88.322 0 -2.94951214825e-12)
(-88.322 0 5.38697953313e-12)
(-88.322 0 1.28401454564e-11)
(-88.322 0 5.78950392597e-12)
(-88.322 0 1.22983083339e-11)
(-88.322 0 -3.40149823687e-12)
(-88.322 0 -4.29134506079e-12)
(-88.3219999998 0 1.20417492814e-11)
(-88.3219999998 0 1.5721517769e-11)
(-88.3220000006 0 3.01943945023e-11)
(-88.3220000004 0 -4.23740520514e-11)
(-88.3219999997 0 -1.65203434877e-11)
(-88.322 0 -2.30295867547e-11)
(-88.3219999999 0 -1.07897893269e-11)
(-88.322 0 -2.85075717733e-11)
(-88.3219999998 0 5.53821504974e-11)
(-88.3219999998 0 -2.25710000336e-10)
(-88.3220000002 0 -1.49260986186e-10)
(-88.322 0 -6.6295176287e-11)
(-88.3219999999 0 -2.48372776813e-12)
(-88.322 0 3.07611970986e-11)
(-88.322 0 -1.47614515157e-11)
(-88.322 0 -1.03344688878e-11)
(-88.322 0 7.43176900243e-12)
(-88.322 0 4.05677751545e-12)
(-88.322 0 -1.32456290429e-11)
(-88.322 0 -2.72691076766e-11)
(-88.322 0 -1.15234235826e-11)
(-88.322 0 -1.24424749542e-11)
(-88.322 0 1.0500700974e-13)
(-88.322 0 -8.99399461302e-12)
(-88.322 0 -7.01740341242e-12)
(-88.322 0 6.84748891844e-13)
(-88.322 0 -4.23158015062e-13)
(-88.322 0 -4.15664129245e-12)
(-88.322 0 -6.62508729212e-12)
(-88.322 0 -3.48009776695e-12)
(-88.322 0 3.1494892422e-12)
(-88.322 0 -2.38063535942e-11)
(-88.322 0 -3.06649298207e-11)
(-88.322 0 5.34456191143e-11)
(-88.322 0 7.33054042449e-11)
(-88.322 0 -9.81020978415e-11)
(-88.322 0 -9.80722311473e-11)
(-88.322 0 -6.98533655131e-11)
(-88.322 0 4.29326356376e-12)
(-88.322 0 -2.58612672151e-11)
(-88.322 0 1.54087694163e-11)
(-88.322 0 -5.31663759212e-11)
(-88.322 0 -8.77656242597e-11)
(-88.322 0 -9.99314467385e-11)
(-88.3219999997 0 -2.73774485663e-12)
(-88.3220000002 0 -1.23279759795e-10)
(-88.3220000005 0 -1.43635288107e-10)
(-88.3219999998 0 -2.17616948699e-10)
(-88.322 0 1.18754845255e-10)
(-88.3219999999 0 2.27129678889e-10)
(-88.3219999998 0 -1.62954328276e-10)
(-88.322 0 -1.83847706152e-10)
(-88.322 0 5.08185310135e-11)
(-88.322 0 1.60138795929e-11)
(-88.322 0 -1.5600949281e-10)
(-88.322 0 -1.46507343603e-10)
(-88.322 0 1.40374289326e-10)
(-88.322 0 -7.9907153154e-11)
(-88.322 0 4.62866657694e-11)
(-88.322 0 -1.76232925196e-10)
(-88.322 0 1.64325779566e-10)
(-88.322 0 -2.70122545772e-12)
(-88.322 0 1.21290756523e-11)
(-88.322 0 1.59984796287e-11)
(-88.322 0 -5.04855639035e-11)
(-88.322 0 -2.00852241154e-10)
(-88.3220000002 0 -1.78384965088e-10)
(-88.3220000001 0 2.75500324413e-11)
(-88.3219999999 0 1.8849959465e-10)
(-88.322 0 2.40948353073e-10)
(-88.322 0 -6.25378156925e-11)
(-88.3219999998 0 -1.29465456556e-10)
(-88.3220000002 0 1.01311888053e-10)
(-88.3220000003 0 -3.12724278461e-11)
(-88.3219999999 0 -5.01822561022e-11)
(-88.3219999999 0 2.09454057183e-11)
(-88.322 0 2.43473517838e-11)
(-88.3220000001 0 1.11299417194e-11)
(-88.322 0 9.61292405187e-13)
(-88.322 0 -2.24706822105e-11)
(-88.322 0 9.11544472413e-13)
(-88.322 0 -2.12184748803e-11)
(-88.322 0 1.27680029135e-11)
(-88.322 0 1.01167756813e-11)
(-88.322 0 -1.17694701535e-11)
(-88.322 0 -1.07985170146e-10)
(-88.322 0 -7.31180505599e-11)
(-88.322 0 -1.19414278828e-10)
(-88.322 0 -1.39890780847e-10)
(-88.322 0 -1.09012926837e-10)
(-88.322 0 6.28515508194e-12)
(-88.322 0 1.76890205217e-11)
(-88.322 0 6.46349757104e-12)
(-88.322 0 -4.83372741677e-11)
(-88.322 0 -8.86743624428e-11)
(-88.322 0 6.42500149963e-11)
(-88.3219999998 0 1.06897049065e-10)
(-88.3219999998 0 1.74126889855e-10)
(-88.3220000003 0 -7.79120039728e-11)
(-88.3220000003 0 -3.83824419106e-11)
(-88.3219999999 0 2.61537167356e-11)
(-88.3219999998 0 2.76097774034e-11)
(-88.3219999999 0 3.46026367935e-11)
(-88.322 0 1.29374745023e-11)
(-88.3220000001 0 1.19489010395e-11)
(-88.3220000002 0 2.75931566506e-12)
(-88.3220000001 0 -9.40025495376e-12)
(-88.3219999998 0 4.57495002755e-12)
(-88.322 0 -2.57746456158e-12)
(-88.3220000003 0 -1.56103322557e-10)
(-88.3220000002 0 9.529864654e-11)
(-88.3219999994 0 1.1790964124e-10)
(-88.3219999991 0 5.31459319004e-11)
(-88.3220000006 0 1.71007133598e-10)
(-88.3220000008 0 -3.86561800756e-11)
(-88.3219999996 0 1.13399949765e-11)
(-88.3219999996 0 1.44056180973e-12)
(-88.3220000004 0 -9.55789447261e-13)
(-88.3220000003 0 1.85499486585e-12)
(-88.3219999994 0 -9.92079357875e-12)
(-88.3219999999 0 1.06300498899e-11)
(-88.3220000001 0 -8.78412822859e-12)
(-88.3220000002 0 -1.31812746491e-11)
(-88.3219999997 0 2.88954899874e-11)
(-88.3219999997 0 2.67560264568e-11)
(-88.3220000003 0 6.42349186767e-11)
(-88.3219999999 0 -6.67211328235e-11)
(-88.3220000001 0 -9.03415968509e-11)
(-88.3220000002 0 4.70659152114e-11)
(-88.322 0 -1.1734566648e-11)
(-88.3220000001 0 1.22082504792e-12)
(-88.3219999997 0 6.37354623189e-11)
(-88.3219999993 0 7.23205288097e-11)
(-88.3220000005 0 7.93822928397e-11)
(-88.3220000006 0 -1.39569626894e-11)
(-88.3219999996 0 8.21460958013e-12)
(-88.3219999997 0 -7.1640511579e-11)
(-88.3220000001 0 1.11104075878e-10)
(-88.3220000001 0 6.49936684877e-11)
(-88.3219999999 0 3.95432365883e-11)
(-88.322 0 -3.02011400819e-11)
(-88.322 0 -3.44046793547e-11)
(-88.322 0 1.26566530539e-11)
(-88.322 0 -7.29855663985e-12)
(-88.322 0 -1.21725141389e-12)
(-88.322 0 -7.6103642307e-12)
(-88.322 0 3.81747294548e-12)
(-88.322 0 1.44893426998e-11)
(-88.3220000002 0 8.55818561921e-12)
(-88.3220000001 0 1.95897322904e-13)
(-88.322 0 -2.41456617664e-11)
(-88.3220000001 0 -1.37225006246e-12)
(-88.322 0 -1.70886831258e-11)
(-88.3219999997 0 -7.2634758594e-12)
(-88.3219999997 0 -1.1772016176e-11)
(-88.322 0 -1.34793817256e-12)
(-88.3220000001 0 -4.75198102053e-13)
(-88.3220000002 0 3.55524250498e-12)
(-88.3219999998 0 -5.66690049243e-12)
(-88.3219999996 0 2.55926672017e-11)
(-88.3219999998 0 2.49946090691e-11)
(-88.3220000004 0 -4.71027158603e-11)
(-88.3220000004 0 -7.60166710506e-11)
(-88.3219999998 0 9.21942766975e-11)
(-88.3219999999 0 9.65912691786e-11)
(-88.322 0 6.46534090151e-11)
(-88.322 0 -3.08370516893e-12)
(-88.322 0 2.66540451659e-11)
(-88.322 0 -9.55996606815e-12)
(-88.322 0 5.41797896174e-11)
(-88.322 0 8.81090106032e-11)
(-88.322 0 9.87873642559e-11)
(-88.322 0 3.19699827853e-12)
(-88.322 0 1.23789326661e-10)
(-88.322 0 1.46924084433e-10)
(-88.3219999999 0 2.2609674415e-10)
(-88.3219999999 0 -1.1814054736e-10)
(-88.3220000001 0 -2.21916843797e-10)
(-88.3220000001 0 1.63702260643e-10)
(-88.322 0 1.81413261569e-10)
(-88.322 0 -4.78383262052e-11)
(-88.322 0 -1.6242808213e-11)
(-88.322 0 1.54111290931e-10)
(-88.322 0 1.44180991123e-10)
(-88.322 0 -1.43591555479e-10)
(-88.322 0 7.93056391942e-11)
(-88.322 0 -4.70784162968e-11)
(-88.3219999999 0 1.74080656559e-10)
(-88.3219999999 0 -1.65711593987e-10)
(-88.3220000002 0 4.21180062871e-12)
(-88.3220000003 0 -1.08618494426e-11)
(-88.3219999998 0 -2.63179045137e-11)
(-88.3219999998 0 7.03629674761e-12)
(-88.322 0 1.71394238079e-10)
(-88.322 0 1.5075544533e-10)
(-88.322 0 4.08240014871e-12)
(-88.3219999999 0 -7.9256756465e-11)
(-88.3220000001 0 -2.49922361155e-10)
(-88.3220000001 0 1.4974657934e-10)
(-88.322 0 9.00482637784e-11)
(-88.322 0 -1.44223006705e-11)
(-88.322 0 -7.73642540145e-11)
(-88.322 0 1.69490165048e-11)
(-88.322 0 -3.61977163291e-11)
(-88.322 0 1.97263182193e-12)
(-88.322 0 1.47523757706e-11)
(-88.322 0 -5.75338574814e-12)
(-88.322 0 2.02798334941e-11)
(-88.322 0 -9.3071981032e-13)
(-88.322 0 1.80990043898e-11)
(-88.322 0 -1.81245931488e-11)
(-88.322 0 -2.58662655416e-11)
(-88.322 0 -2.2695160984e-11)
(-88.322 0 3.45315299542e-11)
(-88.322 0 8.06648927611e-11)
(-88.322 0 4.72590959176e-11)
(-88.322 0 5.22531679433e-12)
(-88.322 0 -2.05273950886e-11)
(-88.322 0 5.39486817571e-13)
(-88.322 0 -1.35665769281e-11)
(-88.322 0 -6.37267161886e-12)
(-88.322 0 4.41522731125e-11)
(-88.322 0 8.87373264889e-11)
(-88.322 0 -6.822172555e-11)
(-88.322 0 -1.08345899327e-10)
(-88.322 0 -1.71678549981e-10)
(-88.322 0 6.87045307624e-11)
(-88.322 0 3.99226119353e-11)
(-88.322 0 -2.47186053788e-11)
(-88.322 0 -2.68871515099e-11)
(-88.322 0 -3.64283393211e-11)
(-88.322 0 -2.20274624827e-11)
(-88.322 0 -1.29568330432e-11)
(-88.322 0 2.69274204064e-13)
(-88.322 0 9.35671108076e-12)
(-88.322 0 1.92006358188e-11)
(-88.322 0 -4.25847056346e-11)
(-88.322 0 5.18673717597e-11)
(-88.322 0 -8.06627810811e-11)
(-88.322 0 -7.84706792075e-11)
(-88.322 0 -9.942745726e-11)
(-88.322 0 3.79761774297e-11)
(-88.322 0 -9.40549774842e-11)
(-88.322 0 -1.44746477236e-10)
(-88.322 0 1.04697830787e-10)
(-88.322 0 7.6192014732e-11)
(-88.322 0 -4.60052784336e-11)
(-88.322 0 -1.29843385174e-12)
(-88.322 0 -1.0032599037e-10)
(-88.322 0 -1.05117367462e-10)
(-88.322 0 -4.61359475965e-11)
(-88.322 0 -1.1097290406e-10)
(-88.322 0 -6.20390850894e-11)
(-88.322 0 -7.92130423741e-11)
(-88.322 0 5.65591125021e-11)
(-88.3220000001 0 1.00518105356e-10)
(-88.3219999998 0 -6.98829422064e-11)
(-88.3219999997 0 1.50221132985e-11)
(-88.3220000005 0 -5.75243860668e-11)
(-88.3220000001 0 6.0280327391e-11)
(-88.3219999998 0 -6.56688707831e-11)
(-88.322 0 -2.30759904006e-10)
(-88.322 0 -1.23680886689e-10)
(-88.322 0 -4.30876295814e-11)
(-88.322 0 7.92430806035e-12)
(-88.322 0 1.24272123687e-12)
(-88.322 0 -8.50945410063e-13)
(-88.322 0 5.18260163775e-13)
(-88.322 0 2.27289930522e-11)
(-88.322 0 -2.25646984537e-11)
(-88.322 0 -6.21556740646e-12)
(-88.322 0 -2.03600579508e-12)
(-88.322 0 -7.11250645286e-12)
(-88.322 0 -2.43545262272e-12)
(-88.322 0 7.62211547305e-12)
(-88.322 0 -1.45714012562e-12)
(-88.3220000001 0 1.32717111421e-11)
(-88.3219999999 0 -4.26887687774e-11)
(-88.322 0 1.17259963907e-10)
(-88.3220000002 0 -1.55204540377e-10)
(-88.3220000001 0 -2.31187041205e-10)
(-88.3219999998 0 -1.67047491763e-11)
(-88.3219999997 0 -6.0433731788e-12)
(-88.322 0 -7.36287960595e-12)
(-88.322 0 1.15728194119e-13)
(-88.322 0 -5.40760553366e-12)
(-88.322 0 1.68575540941e-12)
(-88.322 0 -2.2760922004e-12)
(-88.322 0 -3.37354138893e-12)
(-88.322 0 -1.08222992437e-11)
(-88.322 0 -3.10632626576e-13)
(-88.322 0 5.74920106117e-12)
(-88.322 0 -1.90024571626e-13)
(-88.322 0 -1.90761533081e-12)
(-88.322 0 -8.17964312511e-12)
(-88.322 0 -4.51068483579e-12)
(-88.322 0 -1.84587790714e-11)
(-88.322 0 -9.306298555e-13)
(-88.322 0 -3.99075716963e-15)
(-88.3220000001 0 8.48302469683e-13)
(-88.3219999999 0 -5.05893302706e-14)
(-88.3220000001 0 -8.64508263464e-13)
(-88.3220000002 0 -6.93260255132e-13)
(-88.322 0 -1.57214905755e-12)
(-88.3219999997 0 -1.61946739154e-11)
(-88.3220000001 0 -1.85512180001e-12)
(-88.3220000005 0 -2.25246315792e-12)
(-88.3219999996 0 -5.45440208265e-13)
(-88.3219999996 0 1.41232549964e-13)
(-88.3220000003 0 1.89170019649e-12)
(-88.3220000002 0 1.41329844194e-13)
(-88.3220000001 0 4.04800644996e-13)
(-88.3220000002 0 3.64847343129e-13)
(-88.3219999999 0 -2.47670697616e-12)
(-88.3219999999 0 -7.46630280863e-13)
(-88.3219999999 0 -7.53543252375e-13)
(-88.3219999999 0 -3.20349440918e-13)
(-88.322 0 -5.05366370702e-13)
(-88.322 0 -1.4204307489e-12)
(-88.322 0 2.32440286968e-11)
(-88.322 0 1.30970942505e-11)
(-88.322 0 3.9944448468e-12)
(-88.3219999999 0 -5.06272533787e-12)
(-88.322 0 -5.14663756579e-12)
(-88.3220000005 0 -7.50534216576e-11)
(-88.3220000002 0 -2.48672382183e-11)
(-88.3219999997 0 -3.14909346922e-11)
(-88.3219999997 0 -7.59565266553e-12)
(-88.3219999999 0 6.22640715995e-11)
(-88.322 0 5.54386782573e-11)