/*--------------------------------*- C++ -*----------------------------------*\
  =========                 |
  \\      /  F ield         | OpenFOAM: The Open Source CFD Toolbox
   \\    /   O peration     | Website:  https://openfoam.org
    \\  /    A nd           | Version:  6
     \\/     M anipulation  |
\*---------------------------------------------------------------------------*/
FoamFile
{
    version     2.0;
    format      ascii;
    class       volVectorField;
    location    "4.72e-05";
    object      U;
}
// * * * * * * * * * * * * * * * * * * * * * * * * * * * * * * * * * * * * * //

dimensions      [0 1 -1 0 0 0 0];

internalField   nonuniform List<vector> 
8192
(
(-88.322 0 -2.78642839145e-10)
(-88.3219999996 0 -7.35531323875e-11)
(-88.3220000001 0 -6.81808009995e-11)
(-88.3220000003 0 -2.53492172107e-10)
(-88.3219999995 0 -6.2233785712e-11)
(-88.3219999997 0 1.29708898954e-11)
(-88.3220000003 0 -1.95282873141e-12)
(-88.322 0 9.36896877064e-11)
(-88.322 0 -2.51121395212e-10)
(-88.322 0 -5.65594728671e-10)
(-88.3219999999 0 -6.92906557855e-10)
(-88.322 0 3.5607191643e-10)
(-88.3220000002 0 6.50606391459e-10)
(-88.322 0 -7.26681420603e-10)
(-88.3219999998 0 -6.14759524145e-10)
(-88.3219999999 0 3.46670436641e-10)
(-88.3219999998 0 2.73552597042e-10)
(-88.3219999999 0 6.20944035874e-10)
(-88.3220000002 0 -4.17326265209e-10)
(-88.322 0 -5.4708818387e-10)
(-88.3219999997 0 2.59896457764e-10)
(-88.3220000003 0 3.75155606089e-10)
(-88.3220000003 0 -5.75904187482e-10)
(-88.3219999998 0 -5.52347795942e-10)
(-88.322 0 1.61596660586e-10)
(-88.3219999999 0 1.6916305714e-10)
(-88.3219999999 0 2.10914107038e-10)
(-88.3219999999 0 1.77950546818e-10)
(-88.3220000002 0 2.91310367324e-10)
(-88.3220000002 0 -1.47864956529e-10)
(-88.3219999999 0 2.05925017437e-10)
(-88.3219999997 0 -4.27345704599e-11)
(-88.321999999 0 1.17504690984e-10)
(-88.3220000018 0 5.24353446055e-10)
(-88.3220000025 0 -8.03413289814e-10)
(-88.3219999988 0 -6.13180499544e-10)
(-88.3219999996 0 -1.66843580368e-11)
(-88.3219999996 0 -5.47938819429e-10)
(-88.3219999986 0 1.7117642556e-10)
(-88.3220000006 0 1.63899980586e-10)
(-88.3220000001 0 -4.58148511354e-11)
(-88.3219999998 0 5.42899949996e-11)
(-88.3220000002 0 -1.28801853257e-11)
(-88.322 0 -1.48046305825e-11)
(-88.322 0 -5.55182164791e-11)
(-88.322 0 -3.45007130888e-11)
(-88.322 0 -1.83131408994e-11)
(-88.322 0 -1.81352297418e-11)
(-88.322 0 2.3848491782e-11)
(-88.3219999998 0 -8.5337315894e-11)
(-88.3219999999 0 1.12618328e-10)
(-88.3220000006 0 -5.16197705513e-11)
(-88.3219999995 0 -1.99250114746e-10)
(-88.3219999993 0 3.2314229684e-10)
(-88.3220000011 0 1.78117742155e-10)
(-88.3220000006 0 -2.12459844852e-10)
(-88.322 0 -3.50780684393e-11)
(-88.3219999998 0 -1.66283199004e-10)
(-88.3220000002 0 -3.92944834869e-11)
(-88.3219999992 0 -2.908032394e-10)
(-88.3219999985 0 3.28548752627e-10)
(-88.3219999998 0 3.83791375011e-10)
(-88.3220000009 0 3.55148473174e-10)
(-88.3220000014 0 -1.14690922824e-11)
(-88.322 0 -3.0670330983e-10)
(-88.3219999999 0 -8.42666098219e-11)
(-88.3220000001 0 1.13738106873e-10)
(-88.3219999997 0 1.02437277153e-11)
(-88.322 0 2.27909054512e-10)
(-88.3220000002 0 -1.15226956355e-10)
(-88.3219999995 0 4.43617963325e-11)
(-88.3220000005 0 5.29338869345e-12)
(-88.3220000013 0 -5.64130636995e-12)
(-88.3220000008 0 -5.76915242871e-11)
(-88.3219999982 0 6.43175937358e-11)
(-88.3219999973 0 -2.28091738637e-10)
(-88.322000002 0 -2.33320824218e-11)
(-88.3220000024 0 -1.7566493944e-10)
(-88.321999998 0 -2.97511301731e-10)
(-88.3219999984 0 2.87892802082e-10)
(-88.3219999996 0 2.13703546466e-10)
(-88.3220000016 0 1.47628149617e-10)
(-88.3220000022 0 -3.24299794632e-10)
(-88.3219999988 0 -1.86464771436e-10)
(-88.3219999985 0 -5.09107081693e-11)
(-88.3220000014 0 -3.73319440567e-12)
(-88.3220000016 0 1.96558532979e-10)
(-88.3219999988 0 -6.77062480121e-11)
(-88.3219999986 0 4.26880542764e-10)
(-88.322 0 -2.01823898877e-10)
(-88.3220000001 0 3.12270323716e-10)
(-88.3219999999 0 2.87888821582e-10)
(-88.3220000005 0 -5.76515449216e-11)
(-88.322 0 2.25671416305e-11)
(-88.3219999998 0 6.75184496348e-11)
(-88.3220000004 0 1.71425383054e-11)
(-88.3219999998 0 -2.17580706316e-10)
(-88.3220000003 0 -4.48525441885e-10)
(-88.322 0 5.36760016524e-10)
(-88.3219999996 0 6.17621976678e-10)
(-88.3220000001 0 2.31438557234e-12)
(-88.322 0 3.01234908048e-10)
(-88.322 0 -1.71454220913e-10)
(-88.322 0 -2.04057464464e-10)
(-88.322 0 1.33361261237e-10)
(-88.322 0 -7.78539062378e-11)
(-88.322 0 6.03723163575e-11)
(-88.322 0 -1.86461200253e-10)
(-88.322 0 -3.92054630673e-10)
(-88.322 0 -3.30033936639e-10)
(-88.322 0 -3.2083001081e-10)
(-88.322 0 -3.81194742922e-10)
(-88.322 0 -3.64295315047e-10)
(-88.322 0 -9.2918524601e-11)
(-88.322 0 3.01062947834e-10)
(-88.3220000001 0 -8.51049583579e-11)
(-88.3219999998 0 5.60383392042e-11)
(-88.322 0 -9.95779510163e-11)
(-88.3220000001 0 -2.75009447544e-10)
(-88.322 0 4.11749142451e-10)
(-88.322 0 -1.67273331904e-10)
(-88.3220000001 0 -1.72334814247e-10)
(-88.322 0 -3.85361621281e-10)
(-88.3219999999 0 8.4783674996e-10)
(-88.322 0 3.21537375718e-10)
(-88.3220000001 0 -7.95141617986e-10)
(-88.3220000001 0 -1.06561848102e-09)
(-88.322 0 -4.38356566967e-10)
(-88.3219999994 0 6.8450141119e-11)
(-88.3219999989 0 9.22236503338e-11)
(-88.322 0 -2.80875045908e-11)
(-88.322 0 1.85196130514e-10)
(-88.3219999999 0 -1.44654629882e-10)
(-88.322 0 1.34994844356e-10)
(-88.322 0 -3.89856816667e-11)
(-88.322 0 -9.14352492121e-11)
(-88.3220000001 0 2.22761459436e-10)
(-88.3219999999 0 5.28323970547e-10)
(-88.3220000003 0 6.50998237102e-10)
(-88.3220000002 0 -2.59140557149e-10)
(-88.322 0 -5.63492191218e-10)
(-88.3220000005 0 5.3251262305e-10)
(-88.3219999989 0 5.52616168528e-10)
(-88.3219999988 0 -3.6488800252e-10)
(-88.3220000001 0 -2.80460283426e-10)
(-88.3220000009 0 -5.61622468886e-10)
(-88.3220000008 0 4.47623888044e-10)
(-88.3219999994 0 5.07901886957e-10)
(-88.3219999993 0 -2.23895657051e-10)
(-88.3219999998 0 -2.17783008874e-10)
(-88.3220000004 0 5.49481392636e-10)
(-88.3219999994 0 5.48176137935e-10)
(-88.3220000003 0 -8.50900617079e-11)
(-88.322 0 -1.55835863445e-10)
(-88.3219999989 0 -8.75698878392e-11)
(-88.3220000007 0 8.67475811836e-11)
(-88.3220000007 0 -6.59364909852e-11)
(-88.3219999999 0 4.39332220209e-11)
(-88.322 0 8.7909894855e-11)
(-88.3220000003 0 -9.91250616159e-12)
(-88.322 0 -4.60889647674e-10)
(-88.322 0 4.35373656985e-10)
(-88.3220000001 0 6.14182093708e-10)
(-88.322 0 -3.89059811499e-10)
(-88.3220000003 0 -6.78928226473e-10)
(-88.322 0 8.13192830395e-10)
(-88.3219999997 0 4.00936955785e-10)
(-88.3219999999 0 -3.63074908628e-10)
(-88.322 0 -4.35372991451e-10)
(-88.322 0 1.81352743428e-10)
(-88.3220000004 0 -2.74737666931e-10)
(-88.322000001 0 -6.28086082134e-11)
(-88.3220000003 0 -3.35921038064e-10)
(-88.3219999998 0 5.96446297526e-11)
(-88.3220000001 0 -5.86821953255e-10)
(-88.3219999999 0 -5.90745293053e-10)
(-88.3219999995 0 4.85487164081e-10)
(-88.3219999986 0 2.11468705608e-11)
(-88.322 0 -3.83895280263e-10)
(-88.322000001 0 1.73406112929e-10)
(-88.3219999995 0 -4.37297009893e-10)
(-88.322 0 4.02832518958e-10)
(-88.322 0 6.65486022062e-11)
(-88.3220000004 0 -3.41165186749e-10)
(-88.3220000012 0 -3.63870804793e-10)
(-88.3220000003 0 -3.85569975653e-10)
(-88.3219999982 0 -1.6504738387e-10)
(-88.3219999979 0 -1.82888704584e-10)
(-88.3220000019 0 -1.54345229639e-10)
(-88.3220000026 0 8.3056032095e-11)
(-88.3220000001 0 5.4342007041e-11)
(-88.3219999999 0 7.4980186528e-11)
(-88.322 0 6.17614734906e-10)
(-88.322 0 1.83852958817e-10)
(-88.322 0 -4.13428353929e-11)
(-88.322 0 1.56040460698e-10)
(-88.322 0 -1.8599252971e-10)
(-88.322 0 3.62361192308e-11)
(-88.322 0 1.28781102486e-11)
(-88.322 0 3.65493915044e-11)
(-88.322 0 2.51503543615e-11)
(-88.322 0 9.231025095e-11)
(-88.3219999998 0 -3.11917497575e-11)
(-88.3219999997 0 1.63094950244e-10)
(-88.3220000004 0 -1.1724207259e-11)
(-88.3220000001 0 3.74279559331e-10)
(-88.3219999998 0 3.36519728233e-10)
(-88.322 0 -2.76218605376e-10)
(-88.322 0 -2.04727349922e-10)
(-88.322 0 -2.79036966218e-10)
(-88.322 0 4.8101524328e-10)
(-88.322 0 4.3591224369e-10)
(-88.322 0 -4.96440009035e-10)
(-88.3219999999 0 -5.09361213195e-10)
(-88.322 0 3.17182813495e-10)
(-88.322 0 4.95686787024e-10)
(-88.322 0 -1.9888494127e-10)
(-88.322 0 5.65791086777e-10)
(-88.3219999996 0 -1.95747605903e-10)
(-88.3219999999 0 3.75816299406e-11)
(-88.3220000006 0 -1.04096577471e-10)
(-88.3219999997 0 -2.59209986368e-10)
(-88.3219999999 0 8.80861996227e-11)
(-88.3220000015 0 -8.61129093679e-11)
(-88.3219999989 0 6.27016132439e-12)
(-88.3219999982 0 -8.242006431e-11)
(-88.3220000016 0 4.25705865856e-11)
(-88.3220000021 0 9.21562223258e-11)
(-88.3219999978 0 -7.17353250822e-11)
(-88.3219999979 0 3.56151718301e-10)
(-88.3220000022 0 -2.13098576867e-11)
(-88.3220000016 0 3.71075034865e-11)
(-88.3219999989 0 -6.77664472654e-11)
(-88.3219999998 0 -4.15305232093e-12)
(-88.3220000004 0 -7.94479796188e-11)
(-88.3220000002 0 1.88308983208e-10)
(-88.3219999997 0 4.21969815574e-10)
(-88.3220000005 0 3.27788688118e-10)
(-88.3220000013 0 3.42427432595e-10)
(-88.3219999979 0 2.64223037072e-10)
(-88.3219999989 0 5.06142091017e-10)
(-88.3220000017 0 1.98861011406e-10)
(-88.3219999998 0 -3.57518126856e-10)
(-88.3220000003 0 1.09247396053e-10)
(-88.3219999993 0 -1.89352804269e-10)
(-88.321999999 0 2.4370584847e-10)
(-88.3220000015 0 5.55397471749e-10)
(-88.3220000008 0 -5.31720321881e-10)
(-88.3220000001 0 -1.56942105341e-10)
(-88.3219999997 0 4.27558278473e-10)
(-88.3219999996 0 6.05668000907e-11)
(-88.3219999998 0 -4.55876531481e-10)
(-88.3219999995 0 -1.02272127196e-09)
(-88.3219999998 0 8.27922455971e-10)
(-88.3220000001 0 9.4714080228e-10)
(-88.322 0 7.29852182414e-10)
(-88.3220000005 0 -3.07494413431e-10)
(-88.3220000001 0 -1.15471151418e-10)
(-88.322 0 2.18694833749e-10)
(-88.3220000004 0 -3.68227167806e-11)
(-88.322 0 -5.42625600025e-11)
(-88.3219999996 0 -1.10905869558e-11)
(-88.322 0 2.16856805529e-12)
(-88.322 0 3.04432467038e-11)
(-88.322 0 1.91822224622e-11)
(-88.322 0 -5.37815897367e-12)
(-88.322 0 6.28369599781e-11)
(-88.3220000001 0 -2.52150401202e-10)
(-88.3219999997 0 -2.66226530599e-10)
(-88.3219999999 0 3.42791729962e-11)
(-88.3220000002 0 -2.50266018399e-11)
(-88.322 0 3.34773807445e-11)
(-88.3220000001 0 1.46132455006e-10)
(-88.3219999995 0 1.44287593702e-10)
(-88.3219999995 0 -2.23575510385e-11)
(-88.3220000014 0 7.60695319279e-13)
(-88.3220000012 0 2.7803003181e-11)
(-88.3219999982 0 2.48341349384e-11)
(-88.3219999984 0 7.41637262325e-11)
(-88.3220000005 0 -1.2573281063e-10)
(-88.3220000001 0 1.24544215942e-10)
(-88.3220000001 0 3.59276081642e-12)
(-88.3219999999 0 2.47406487605e-10)
(-88.3220000005 0 2.82042945623e-10)
(-88.3220000012 0 3.55308251472e-10)
(-88.3219999995 0 -2.6897159266e-11)
(-88.3219999996 0 1.49892575261e-10)
(-88.3220000004 0 3.86463269458e-10)
(-88.322 0 -3.12181705983e-11)
(-88.322 0 -5.2761024143e-10)
(-88.3219999999 0 -7.44512534836e-10)
(-88.3220000002 0 1.82987874598e-10)
(-88.3219999997 0 8.46500864504e-10)
(-88.3219999999 0 -1.05582354788e-09)
(-88.3220000003 0 -2.8154601167e-10)
(-88.322 0 1.68883928837e-10)
(-88.322 0 3.81269666349e-10)
(-88.322 0 -1.53545299716e-10)
(-88.322 0 2.38739647007e-10)
(-88.322 0 6.85639023964e-11)
(-88.322 0 3.09214165988e-10)
(-88.322 0 -4.61498381829e-11)
(-88.3220000002 0 5.84605846146e-10)
(-88.3219999997 0 5.08706707094e-10)
(-88.3219999996 0 -4.21532683416e-10)
(-88.3220000003 0 -1.23580041878e-10)
(-88.3220000001 0 2.89682224872e-10)
(-88.3220000007 0 -7.3790210387e-12)
(-88.3219999993 0 3.51394494217e-10)
(-88.3219999985 0 -4.08018403359e-10)
(-88.3220000015 0 -6.82210884327e-11)
(-88.3220000017 0 -2.34809981016e-10)
(-88.3219999992 0 1.54130730111e-10)
(-88.3219999999 0 1.15853684858e-10)
(-88.3219999998 0 -3.02027925281e-10)
(-88.3220000001 0 7.65653472237e-10)
(-88.3219999993 0 6.37064559164e-10)
(-88.3219999986 0 3.88605740359e-10)
(-88.3220000002 0 1.61566438307e-10)
(-88.3220000004 0 -1.18005191223e-11)
(-88.3220000002 0 -1.05750433049e-10)
(-88.321999999 0 -2.10417662662e-10)
(-88.322 0 3.97578017846e-10)
(-88.3220000005 0 6.11328841685e-10)
(-88.322 0 -1.11455762623e-11)
(-88.3219999999 0 4.27364964623e-10)
(-88.322 0 3.28477762748e-10)
(-88.322 0 -4.24861168354e-10)
(-88.322 0 1.57541002331e-11)
(-88.3219999999 0 9.14402117824e-11)
(-88.3220000003 0 -4.27519590279e-11)
(-88.3220000003 0 1.77945208433e-10)
(-88.3219999999 0 1.78458736886e-10)
(-88.3219999998 0 -5.09078559996e-10)
(-88.3219999998 0 4.96461219554e-10)
(-88.3219999997 0 4.0228842412e-10)
(-88.3219999998 0 5.21933810526e-10)
(-88.3220000003 0 1.16277561382e-10)
(-88.3220000003 0 -6.75293290399e-10)
(-88.322 0 -2.47029713626e-10)
(-88.3219999998 0 8.85007857714e-10)
(-88.3219999998 0 1.0753702016e-09)
(-88.3220000004 0 -6.21718748996e-10)
(-88.3219999999 0 -6.13112052416e-10)
(-88.3219999998 0 -4.42088035258e-10)
(-88.3219999998 0 -6.84799979787e-11)
(-88.3219999991 0 1.14607364863e-10)
(-88.3219999996 0 -4.40069377758e-10)
(-88.3220000013 0 5.14222525925e-10)
(-88.3220000001 0 6.97368702847e-10)
(-88.3219999991 0 -1.10705501311e-10)
(-88.3220000019 0 -3.59537059392e-10)
(-88.3220000007 0 9.39810585174e-11)
(-88.3219999995 0 1.61089683872e-10)
(-88.3220000002 0 1.17102509567e-10)
(-88.321999999 0 -1.19177671867e-10)
(-88.3220000003 0 -6.75963975569e-12)
(-88.3220000001 0 -5.83085809538e-11)
(-88.3219999999 0 4.67510004155e-12)
(-88.3220000003 0 5.46456706206e-11)
(-88.3219999996 0 4.43655717062e-11)
(-88.322 0 -2.10373234672e-11)
(-88.322 0 1.45843792151e-11)
(-88.322 0 8.90843892183e-12)
(-88.322 0 7.89853205224e-12)
(-88.322 0 1.21999377505e-11)
(-88.3220000001 0 -7.50622444753e-11)
(-88.3219999998 0 2.87879325797e-10)
(-88.3220000001 0 -2.01615145729e-10)
(-88.3220000002 0 -7.42577212102e-11)
(-88.3219999996 0 -1.69474042811e-11)
(-88.3220000002 0 9.37688536884e-11)
(-88.3220000001 0 2.71362044913e-10)
(-88.3219999999 0 -4.21855597793e-10)
(-88.3220000012 0 -4.56830814844e-10)
(-88.3220000002 0 3.00669969003e-10)
(-88.3219999994 0 3.39264621392e-10)
(-88.3220000007 0 4.55917661912e-11)
(-88.3219999983 0 3.96969435281e-10)
(-88.3219999979 0 -8.81383557288e-11)
(-88.3220000002 0 4.56749891638e-10)
(-88.3220000007 0 -2.57620538886e-10)
(-88.3220000009 0 -7.67508504928e-11)
(-88.3220000009 0 -2.47520964736e-10)
(-88.3220000004 0 4.74775595776e-10)
(-88.3219999991 0 2.17001262997e-11)
(-88.3219999984 0 -2.71056421999e-10)
(-88.3220000012 0 4.74283377264e-11)
(-88.3220000004 0 2.84304683537e-11)
(-88.3219999989 0 4.96146075919e-11)
(-88.3220000018 0 -8.44531734853e-11)
(-88.3220000007 0 6.11507310827e-11)
(-88.321999999 0 -1.67753510266e-10)
(-88.3220000002 0 -1.68756476217e-10)
(-88.3219999998 0 4.06373205719e-10)
(-88.3219999997 0 -3.77835292353e-10)
(-88.3220000011 0 -3.35186634107e-10)
(-88.3219999993 0 -6.04894593667e-11)
(-88.3219999984 0 -1.20694105862e-10)
(-88.3219999999 0 5.95971434872e-12)
(-88.3220000008 0 -2.40371900658e-10)
(-88.322000002 0 -1.18893841449e-10)
(-88.322 0 3.42608359507e-11)
(-88.3219999983 0 -1.81358619661e-12)
(-88.3219999986 0 -5.34911165875e-13)
(-88.3220000012 0 -3.10384210129e-11)
(-88.3220000018 0 1.30972346402e-12)
(-88.322 0 -3.69208712285e-12)
(-88.321999999 0 -7.6167839374e-11)
(-88.321999999 0 4.67846362731e-11)
(-88.3220000007 0 -3.14204729305e-10)
(-88.3219999996 0 -3.45192207285e-10)
(-88.321999999 0 -5.70135638891e-10)
(-88.3220000008 0 2.90036698523e-10)
(-88.3220000017 0 -4.39758707494e-10)
(-88.322 0 -3.71901797106e-10)
(-88.321999999 0 7.9719058574e-10)
(-88.3219999999 0 1.9581248911e-10)
(-88.3220000005 0 -1.21109076484e-10)
(-88.3220000004 0 -4.43925483944e-10)
(-88.3219999997 0 -1.39215649876e-10)
(-88.3219999999 0 6.1442158355e-10)
(-88.322 0 -1.64592094482e-10)
(-88.3219999999 0 -8.80251535155e-11)
(-88.3220000001 0 4.61640407881e-11)
(-88.322 0 8.22481144478e-11)
(-88.322 0 -1.8789426909e-10)
(-88.322 0 6.22583794165e-11)
(-88.322 0 3.40294324439e-11)
(-88.3220000001 0 9.16466977099e-12)
(-88.3219999996 0 -9.90406903923e-12)
(-88.322 0 -3.54846787194e-11)
(-88.3220000004 0 3.03054835306e-11)
(-88.322 0 -3.52758105889e-11)
(-88.3219999998 0 1.12754830017e-10)
(-88.3220000002 0 -4.07242802639e-11)
(-88.3220000003 0 6.34194023867e-11)
(-88.3219999998 0 -6.86860845667e-11)
(-88.322 0 4.6826544775e-11)
(-88.3220000002 0 3.23611137508e-10)
(-88.3219999998 0 2.28947090989e-11)
(-88.3219999998 0 9.20878193074e-11)
(-88.3220000001 0 4.73003067145e-10)
(-88.3219999999 0 -5.06764872517e-10)
(-88.3219999997 0 -4.60204958723e-10)
(-88.3219999997 0 5.42484329555e-11)
(-88.3220000002 0 2.47561660423e-10)
(-88.3220000005 0 -9.85584916518e-11)
(-88.322 0 9.12624723109e-11)
(-88.3220000005 0 2.03152703394e-10)
(-88.3219999998 0 -3.73850795795e-10)
(-88.3219999999 0 -6.37150030548e-10)
(-88.322 0 1.93613958854e-10)
(-88.3220000001 0 -4.36521468736e-10)
(-88.3219999999 0 -3.529049481e-10)
(-88.3220000001 0 4.19510093121e-10)
(-88.3220000005 0 -2.91364683192e-11)
(-88.3219999986 0 -1.19201357744e-10)
(-88.3220000008 0 7.49335390751e-11)
(-88.3220000019 0 -1.69569704023e-10)
(-88.3219999992 0 -1.06910182657e-10)
(-88.3219999993 0 3.72520426098e-10)
(-88.3219999996 0 -4.94410267897e-10)
(-88.3219999999 0 -3.56638779623e-10)
(-88.3219999999 0 -5.06491336374e-10)
(-88.3219999998 0 -1.03616219759e-12)
(-88.3220000001 0 4.50410185732e-10)
(-88.322 0 2.7718220292e-11)
(-88.3219999999 0 -3.78514311895e-10)
(-88.3219999998 0 -6.93560921687e-10)
(-88.3220000003 0 1.9545638705e-10)
(-88.322 0 1.99733819601e-10)
(-88.3219999997 0 2.27534782897e-10)
(-88.3220000003 0 -2.72069115022e-10)
(-88.3219999998 0 -2.89677534801e-10)
(-88.3220000002 0 6.06932558681e-11)
(-88.322 0 -4.8929033995e-10)
(-88.322 0 -4.59408142592e-10)
(-88.3220000003 0 -9.71794866674e-11)
(-88.3219999995 0 4.10669285545e-10)
(-88.3219999997 0 -7.81199475258e-11)
(-88.3220000013 0 -9.04702702588e-11)
(-88.3220000015 0 -1.12554273956e-10)
(-88.321999999 0 -5.00506372348e-11)
(-88.3219999981 0 2.20343118928e-10)
(-88.3220000001 0 -4.56638211317e-11)
(-88.3220000013 0 8.0199525893e-11)
(-88.3219999999 0 -3.38053511276e-11)
(-88.3219999993 0 -2.23991139294e-11)
(-88.3220000005 0 3.90967265645e-11)
(-88.322 0 -6.25061205442e-12)
(-88.3219999996 0 -1.18788969936e-11)
(-88.3220000001 0 -3.92344525702e-11)
(-88.322 0 -2.36855182058e-11)
(-88.3220000002 0 4.50568550253e-11)
(-88.3219999998 0 -1.88326728397e-10)
(-88.3220000001 0 4.82058031272e-11)
(-88.322 0 1.1170267214e-10)
(-88.3219999995 0 -1.56066901111e-10)
(-88.3220000002 0 -1.74651442385e-10)
(-88.322 0 1.08588318818e-10)
(-88.3219999998 0 5.72818490324e-10)
(-88.3220000005 0 5.70682282576e-10)
(-88.3220000003 0 -2.87030351489e-10)
(-88.3219999999 0 -3.48625593283e-10)
(-88.3219999998 0 -2.21973910909e-10)
(-88.3219999996 0 -4.5690200411e-10)
(-88.3219999998 0 1.65895905393e-10)
(-88.3219999992 0 -4.27003427824e-10)
(-88.3219999993 0 3.53352729835e-10)
(-88.3220000012 0 -1.73493249792e-10)
(-88.3220000004 0 1.40950746201e-10)
(-88.3220000003 0 -2.84611179027e-10)
(-88.3220000001 0 1.22024987341e-11)
(-88.322 0 -4.50777813771e-11)
(-88.322 0 5.90853278444e-13)
(-88.322 0 -7.33906249579e-11)
(-88.322 0 8.71789398603e-11)
(-88.322 0 3.98660015601e-11)
(-88.322 0 -9.36975132112e-11)
(-88.3220000001 0 1.61773996447e-10)
(-88.322 0 1.57426894358e-10)
(-88.322 0 -4.70787626135e-10)
(-88.322 0 5.51279217453e-10)
(-88.322 0 5.38399554919e-10)
(-88.322 0 7.97743959289e-11)
(-88.322 0 1.20589417553e-10)
(-88.322 0 -3.31657828914e-11)
(-88.322 0 8.5040876181e-11)
(-88.322 0 -1.47171465083e-11)
(-88.322 0 2.38141790991e-12)
(-88.322 0 9.4879931785e-12)
(-88.322 0 -2.38504185653e-11)
(-88.322 0 1.48970879537e-11)
(-88.322 0 -1.28062881933e-11)
(-88.322 0 1.53544088901e-10)
(-88.322 0 -5.99465186953e-11)
(-88.322 0 -4.36704843143e-11)
(-88.322 0 7.82970749662e-11)
(-88.322 0 -2.64013065585e-11)
(-88.322 0 4.04495862819e-11)
(-88.322 0 -1.88813406559e-10)
(-88.322 0 4.58093182553e-11)
(-88.322 0 -8.59238679018e-11)
(-88.322 0 -3.15491015874e-11)
(-88.322 0 2.03723279389e-10)
(-88.3220000003 0 -1.58283879161e-10)
(-88.3219999999 0 1.60783677145e-10)
(-88.3219999997 0 -1.89956456443e-10)
(-88.3220000001 0 -7.30527911791e-10)
(-88.322 0 1.6621985519e-10)
(-88.322 0 3.07387314561e-10)
(-88.322 0 -2.48366982743e-11)
(-88.322 0 -8.24611920124e-11)
(-88.322 0 1.93014056177e-10)
(-88.322 0 -8.92159811708e-11)
(-88.322 0 -3.20607817322e-11)
(-88.322 0 -2.3882902512e-11)
(-88.322 0 -5.99354808812e-11)
(-88.322 0 1.42301913206e-10)
(-88.3219999998 0 -1.37823122059e-11)
(-88.3220000003 0 1.97129782329e-10)
(-88.3220000003 0 -5.25946856542e-11)
(-88.3219999996 0 -7.51756817385e-11)
(-88.3219999988 0 -1.65920850824e-10)
(-88.3219999989 0 6.75866368003e-11)
(-88.3220000018 0 1.28739576292e-10)
(-88.3220000021 0 -2.42524481126e-10)
(-88.3219999996 0 -1.05108983785e-10)
(-88.322 0 -5.23573918945e-11)
(-88.3219999993 0 -1.09718838918e-10)
(-88.3219999998 0 5.0239340434e-11)
(-88.3219999993 0 5.81303815832e-11)
(-88.3219999992 0 -1.01086490442e-09)
(-88.3220000006 0 -8.44596535258e-10)
(-88.322 0 -2.36343051636e-10)
(-88.3219999996 0 1.29841735814e-10)
(-88.3220000001 0 1.21948704901e-10)
(-88.3219999999 0 -1.60180832682e-10)
(-88.322 0 -5.13171629109e-11)
(-88.3219999997 0 7.10998903521e-11)
(-88.3219999999 0 5.75586102063e-11)
(-88.3220000003 0 -1.28297060678e-10)
(-88.322 0 -1.41446982966e-10)
(-88.322 0 -3.46962837139e-11)
(-88.322 0 -6.71040193074e-11)
(-88.322 0 7.73878508765e-12)
(-88.3219999999 0 -2.72491471159e-11)
(-88.3220000002 0 -8.86761618215e-12)
(-88.3220000001 0 -2.3557350182e-11)
(-88.3219999998 0 -3.15293949887e-11)
(-88.322 0 -4.03866831153e-11)
(-88.322 0 -3.53800578755e-11)
(-88.322 0 -5.23018216453e-12)
(-88.322 0 4.90121488243e-11)
(-88.322 0 -1.68141928783e-10)
(-88.3219999999 0 -7.09471786826e-11)
(-88.3219999999 0 4.94948703014e-10)
(-88.322 0 3.44676585971e-10)
(-88.3220000001 0 -4.62631940443e-10)
(-88.3220000001 0 -3.50381883528e-10)
(-88.322 0 -1.13053377647e-10)
(-88.3219999998 0 6.80283671925e-11)
(-88.3220000002 0 -1.64793971166e-10)
(-88.3220000003 0 1.25253409775e-10)
(-88.322 0 -1.48895368675e-10)
(-88.3220000001 0 -4.0337606748e-10)
(-88.3219999997 0 -3.12947886103e-10)
(-88.3219999991 0 2.47071432057e-10)
(-88.3220000015 0 -4.2115478989e-10)
(-88.3220000016 0 -4.60515072601e-10)
(-88.3219999991 0 -4.08882331994e-10)
(-88.3219999999 0 4.4158915909e-10)
(-88.3219999994 0 3.35275951532e-10)
(-88.3219999991 0 -3.69661886033e-10)
(-88.3220000003 0 -2.44282830075e-10)
(-88.322 0 5.20330677584e-10)
(-88.322 0 1.15071885724e-10)
(-88.322 0 -3.42683060493e-10)
(-88.322 0 -5.55311677245e-10)
(-88.322 0 2.38963270362e-10)
(-88.3220000001 0 -2.39477461057e-10)
(-88.3219999999 0 -8.48240446023e-11)
(-88.3219999997 0 -5.10631795397e-10)
(-88.322 0 4.23925653934e-10)
(-88.3220000001 0 -1.23131891572e-10)
(-88.322 0 6.38722377769e-11)
(-88.3220000006 0 2.73373844958e-10)
(-88.3219999998 0 -3.97939709055e-10)
(-88.3219999993 0 -9.32098104292e-10)
(-88.3220000011 0 -1.11437674196e-09)
(-88.3220000007 0 -4.11011496359e-10)
(-88.3219999995 0 9.84302775673e-10)
(-88.3219999998 0 5.69961248675e-10)
(-88.3219999993 0 -7.5266963675e-11)
(-88.3219999994 0 -6.87803672398e-10)
(-88.3220000013 0 7.35235302227e-10)
(-88.3220000011 0 -3.01037165615e-11)
(-88.3219999996 0 -1.78874007293e-10)
(-88.3219999995 0 -2.82880887229e-11)
(-88.322 0 1.070173303e-10)
(-88.3220000006 0 5.46103860305e-11)
(-88.3220000004 0 2.38128053874e-10)
(-88.3219999996 0 -2.24242852078e-10)
(-88.3219999998 0 1.77494899117e-10)
(-88.3220000004 0 -2.63228283545e-10)
(-88.3220000003 0 2.15739810457e-10)
(-88.3219999998 0 2.5398264719e-10)
(-88.322 0 -2.14627240202e-10)
(-88.3219999998 0 -4.11158374516e-10)
(-88.322 0 -1.37775843555e-10)
(-88.322 0 -4.61014825926e-10)
(-88.322 0 -4.4547007766e-10)
(-88.322 0 -1.55175849683e-10)
(-88.322 0 7.50087145822e-11)
(-88.322 0 3.63551647442e-11)
(-88.322 0 9.81752206662e-11)
(-88.3219999999 0 -3.46218169303e-10)
(-88.3220000004 0 -7.04142044996e-10)
(-88.3220000002 0 3.21746251188e-10)
(-88.3219999986 0 3.17771509834e-10)
(-88.3219999992 0 7.57640629249e-10)
(-88.322000002 0 -4.64842580349e-10)
(-88.3220000013 0 -4.38944480871e-10)
(-88.3219999993 0 2.99064498836e-10)
(-88.3219999992 0 2.87674648093e-10)
(-88.3220000001 0 2.84701030782e-10)
(-88.322 0 1.04128530345e-10)
(-88.3220000001 0 3.12565395289e-10)
(-88.322000001 0 1.03162683741e-10)
(-88.3220000002 0 3.53661507286e-11)
(-88.3219999987 0 9.50531118459e-11)
(-88.3220000002 0 -1.34812811367e-10)
(-88.3220000014 0 -3.86988132784e-10)
(-88.3220000004 0 5.3090146117e-10)
(-88.321999998 0 7.75328913383e-10)
(-88.3219999981 0 4.85970770606e-10)
(-88.3220000016 0 7.30336569606e-10)
(-88.3220000011 0 -4.89620098327e-10)
(-88.3219999983 0 -3.67017818395e-11)
(-88.3219999993 0 2.341597489e-11)
(-88.3220000017 0 -6.12107531545e-11)
(-88.3220000013 0 5.66605165202e-11)
(-88.3219999988 0 -9.37844030755e-11)
(-88.3219999994 0 4.35639011191e-11)
(-88.3220000006 0 -1.16112900777e-10)
(-88.3220000005 0 -2.91509728753e-10)
(-88.3219999989 0 2.33611829571e-10)
(-88.321999999 0 3.2758693282e-10)
(-88.3220000011 0 4.25738865161e-10)
(-88.3219999995 0 -3.3674105934e-10)
(-88.3220000004 0 -3.41391213761e-10)
(-88.3220000011 0 6.84414412816e-10)
(-88.3220000003 0 9.786035113e-11)
(-88.3220000008 0 1.12277004217e-10)
(-88.321999998 0 3.48952595241e-10)
(-88.3219999976 0 5.42036161836e-10)
(-88.3220000021 0 6.38645415021e-10)
(-88.3220000017 0 -2.35350005023e-10)
(-88.3219999981 0 -3.75548641565e-10)
(-88.321999998 0 -1.88719279659e-10)
(-88.322000001 0 4.37429466203e-10)
(-88.3220000006 0 3.95531809236e-10)
(-88.3219999994 0 2.92141827757e-10)
(-88.322 0 -1.81877056505e-10)
(-88.3219999998 0 -2.11059805055e-10)
(-88.3220000004 0 1.31261450187e-10)
(-88.322 0 -2.54398362197e-11)
(-88.3219999999 0 -6.37097617749e-11)
(-88.3219999999 0 -1.09973551732e-10)
(-88.3219999992 0 1.22462867084e-10)
(-88.3220000008 0 9.96728906138e-11)
(-88.3220000013 0 3.75172593624e-11)
(-88.3219999998 0 -3.43158921588e-11)
(-88.322 0 -3.05357622635e-10)
(-88.3220000005 0 -2.91825463587e-11)
(-88.3219999996 0 -8.28196445652e-11)
(-88.3219999991 0 -1.02978683979e-10)
(-88.3219999995 0 7.44745733016e-11)
(-88.322 0 -1.0419276712e-10)
(-88.3220000007 0 -1.07194959389e-11)
(-88.3220000016 0 2.61330327718e-13)
(-88.3219999988 0 -6.82238791014e-11)
(-88.321999998 0 1.91267296342e-10)
(-88.321999999 0 4.23500276219e-12)
(-88.3220000015 0 -3.50141114557e-10)
(-88.3220000024 0 -2.2769710336e-10)
(-88.3219999987 0 3.2529128956e-10)
(-88.3219999986 0 4.55717491923e-10)
(-88.322 0 1.15534645031e-10)
(-88.3220000001 0 -4.75864943914e-11)
(-88.3220000001 0 1.69008758276e-10)
(-88.3220000003 0 -9.10284084934e-11)
(-88.3220000005 0 1.59972867017e-10)
(-88.3220000001 0 4.05791188902e-10)
(-88.322 0 3.12000291389e-10)
(-88.3219999999 0 -2.41510044334e-10)
(-88.3220000003 0 5.15352802036e-10)
(-88.3219999994 0 2.78125487801e-10)
(-88.321999999 0 6.19961100865e-10)
(-88.322 0 -5.00482207094e-10)
(-88.3220000013 0 -3.34209645154e-10)
(-88.3220000006 0 5.15829824641e-10)
(-88.3219999993 0 2.12345727942e-10)
(-88.322 0 -5.2580176892e-10)
(-88.322 0 -1.0762423198e-10)
(-88.3220000001 0 3.26964221232e-10)
(-88.322 0 5.7981156905e-10)
(-88.322 0 -3.93205873784e-10)
(-88.3220000008 0 2.29327207783e-10)
(-88.3219999992 0 5.55412997542e-11)
(-88.3219999984 0 5.20116908699e-10)
(-88.3219999996 0 -4.5020925969e-10)
(-88.3220000015 0 2.52252485245e-11)
(-88.3220000016 0 1.43222173604e-10)
(-88.3219999985 0 -5.33654097881e-10)
(-88.321999999 0 1.13123261063e-10)
(-88.3220000004 0 7.48779629356e-10)
(-88.3220000005 0 7.20768055292e-10)
(-88.3219999999 0 4.43735652644e-10)
(-88.3219999991 0 -4.27134368263e-10)
(-88.3220000013 0 -5.88453068736e-10)
(-88.3220000012 0 4.98117156541e-10)
(-88.3219999995 0 4.74529965446e-10)
(-88.3219999997 0 -3.87382854254e-10)
(-88.322 0 -5.07946150848e-10)
(-88.3219999999 0 1.29017015778e-10)
(-88.322 0 -1.7158931224e-10)
(-88.322 0 -3.78524973313e-11)
(-88.322 0 1.15155576922e-10)
(-88.322 0 -2.01546400016e-10)
(-88.322 0 1.8194605174e-10)
(-88.322 0 -1.06065716723e-10)
(-88.322 0 1.52551242679e-10)
(-88.322 0 -2.15195896658e-10)
(-88.322 0 -1.30456498319e-10)
(-88.3220000002 0 -2.02906751766e-10)
(-88.3220000005 0 1.67928272722e-11)
(-88.3219999999 0 3.448779568e-10)
(-88.3219999996 0 1.74679312571e-10)
(-88.3220000001 0 -1.32600625856e-10)
(-88.3219999997 0 -2.73788634539e-10)
(-88.322 0 1.31444380748e-10)
(-88.3220000001 0 1.82820979989e-10)
(-88.3219999997 0 -2.15961915966e-10)
(-88.322 0 3.86228882293e-10)
(-88.322 0 6.98911574336e-10)
(-88.3220000001 0 -3.01615428231e-10)
(-88.3219999997 0 -3.28351104573e-10)
(-88.3219999997 0 -7.79001849633e-10)
(-88.3220000005 0 3.83522806427e-10)
(-88.322 0 4.0299105953e-10)
(-88.3219999998 0 -3.23776575056e-10)
(-88.3220000002 0 -2.9268634543e-10)
(-88.322 0 -3.25362814652e-10)
(-88.322 0 -2.09557309633e-10)
(-88.322 0 -2.21368785301e-10)
(-88.322 0 -1.08338451708e-10)
(-88.322 0 1.08982032155e-10)
(-88.322 0 1.17950769411e-10)
(-88.3219999997 0 -1.46780160295e-10)
(-88.3220000003 0 3.36579981119e-10)
(-88.3220000002 0 -3.01365088104e-10)
(-88.3219999996 0 -6.69195376088e-10)
(-88.322 0 -5.32163492304e-10)
(-88.3219999997 0 -1.24863681925e-10)
(-88.3220000002 0 -6.91692766033e-11)
(-88.3220000005 0 -4.5733567489e-10)
(-88.3219999999 0 2.32420952421e-10)
(-88.322 0 3.43719713773e-10)
(-88.322 0 -3.73274399836e-10)
(-88.3220000003 0 5.32954659818e-11)
(-88.3220000001 0 -5.05059777386e-10)
(-88.3219999997 0 -4.43809163707e-10)
(-88.322 0 1.28499670925e-10)
(-88.3219999999 0 -7.68837766745e-10)
(-88.322 0 -4.59107709487e-10)
(-88.3219999999 0 -4.64986171861e-10)
(-88.3220000006 0 2.21741336201e-10)
(-88.3220000006 0 2.92841563038e-10)
(-88.3219999986 0 -5.45262985789e-10)
(-88.3219999991 0 -1.07735462809e-10)
(-88.3220000014 0 -4.76058545507e-10)
(-88.3220000003 0 2.6366196985e-10)
(-88.3219999998 0 -4.48740359195e-10)
(-88.3220000003 0 -8.68380088975e-10)
(-88.3219999997 0 -1.99822827073e-10)
(-88.3219999999 0 8.41511389776e-11)