/*--------------------------------*- C++ -*----------------------------------*\
  =========                 |
  \\      /  F ield         | OpenFOAM: The Open Source CFD Toolbox
   \\    /   O peration     | Website:  https://openfoam.org
    \\  /    A nd           | Version:  6
     \\/     M anipulation  |
\*---------------------------------------------------------------------------*/
FoamFile
{
    version     2.0;
    format      ascii;
    class       volScalarField;
    location    "4.91e-05";
    object      p;
}
// * * * * * * * * * * * * * * * * * * * * * * * * * * * * * * * * * * * * * //

dimensions      [1 -1 -2 0 0 0 0];

internalField   nonuniform List<scalar> 
8192
(
6000000.00075
5999999.99938
6000000.00034
6000000.00117
6000000.00496
5999999.99796
6000000.00184
5999999.99933
6000000.00054
5999999.99986
6000000.0002
5999999.99983
6000000.0006
6000000.0014
6000000.0008
6000000.00068
6000000.00054
5999999.99796
5999999.99901
6000000.0006
5999999.99859
5999999.9973
6000000.00171
5999999.99985
5999999.99947
5999999.99994
5999999.99787
5999999.99907
5999999.99823
5999999.9989
6000000.00025
6000000.00071
5999999.99636
5999999.99389
6000000.00774
6000000.00752
5999999.9991
6000000.00432
5999999.99963
5999999.99687
6000000.00416
5999999.99743
6000000.00037
5999999.99988
6000000.00049
6000000.00043
6000000.00018
5999999.99966
5999999.99927
6000000.00166
5999999.99677
6000000.00081
6000000.00332
5999999.99561
5999999.99612
6000000.00119
5999999.99996
6000000.00335
6000000.0001
6000000.00607
5999999.99656
5999999.99726
5999999.99696
6000000.00273
6000000.00088
6000000.00228
6000000.00004
6000000.00408
5999999.99543
6000000.00333
5999999.99866
5999999.9964
6000000.00262
6000000.0027
6000000.0068
5999999.99673
5999999.99454
6000000.00641
6000000.00246
5999999.99523
5999999.99447
5999999.99191
6000000.00318
6000000.00585
6000000.00014
5999999.99922
6000000.00638
6000000.00469
5999999.99731
5999999.99716
5999999.99829
5999999.99829
5999999.99691
6000000.00468
5999999.99668
6000000.00245
6000000.00163
5999999.99945
6000000.00377
5999999.99822
5999999.99972
5999999.99988
5999999.9997
6000000.0003
5999999.99888
6000000.0003
6000000.00012
6000000
5999999.99998
5999999.99998
6000000.00011
6000000.00034
5999999.99939
6000000.00065
5999999.99962
6000000.00156
6000000.00009
5999999.99852
6000000.00073
5999999.99894
5999999.99917
5999999.99876
6000000.00022
5999999.99867
6000000.0002
5999999.99953
6000000.00028
6000000.00034
6000000.00622
6000000.00055
5999999.99651
6000000.00063
5999999.99841
5999999.99959
5999999.99997
5999999.99958
6000000.00086
6000000.00089
5999999.99852
6000000.00365
6000000.00074
6000000.00321
6000000.00437
5999999.99652
5999999.99699
5999999.99805
6000000.00213
6000000.00231
5999999.99988
5999999.99991
5999999.99879
6000000.00065
5999999.99465
6000000.00033
5999999.99697
5999999.99677
6000000.00175
6000000.00141
5999999.99829
5999999.99913
5999999.99977
5999999.99965
6000000.00012
6000000.00053
5999999.99961
6000000.00227
6000000.00019
6000000.00116
5999999.99759
6000000.00064
5999999.99721
6000000.00335
6000000.00194
6000000.00274
6000000.00196
6000000.00414
6000000.00224
6000000.00019
5999999.99411
6000000.0031
6000000.00179
5999999.99778
6000000.00066
5999999.99791
6000000.00301
6000000.00066
6000000.00208
5999999.99279
5999999.99253
6000000.00186
6000000.00628
6000000.00418
5999999.99926
5999999.99919
6000000.0013
6000000.0005
5999999.99986
6000000.00001
5999999.99997
6000000.00001
6000000.00015
6000000.00009
6000000.00002
5999999.99734
5999999.9975
6000000.00308
5999999.99921
5999999.99996
6000000.00005
5999999.99998
6000000.0001
6000000.00031
6000000.00043
5999999.99948
5999999.99994
6000000.00008
5999999.99966
6000000.00043
5999999.99994
5999999.99513
6000000.0011
6000000.00189
5999999.99713
6000000.00092
6000000.00688
5999999.9941
5999999.99687
6000000.00527
6000000.00857
5999999.99185
5999999.99455
6000000.00137
6000000.00401
5999999.99539
6000000.00334
6000000.0004
6000000.00482
5999999.99821
6000000.00714
6000000.0036
5999999.9907
6000000.00043
6000000.00678
5999999.9985
6000000.00542
5999999.99349
5999999.99821
6000000.00136
6000000.00353
6000000.00405
6000000.00048
6000000.00239
6000000.00082
5999999.99896
5999999.9993
5999999.99925
5999999.99994
5999999.99871
6000000.00064
5999999.99782
6000000.00198
5999999.99821
5999999.99956
5999999.99921
5999999.99965
5999999.99992
5999999.99988
6000000.0015
6000000.0016
5999999.99632
6000000.00041
6000000.00189
5999999.99991
6000000.00303
5999999.99531
5999999.99684
6000000.00503
6000000.0007
5999999.99628
5999999.99463
5999999.99982
5999999.99382
5999999.99849
5999999.99448
6000000.00181
6000000.00581
5999999.99573
6000000.00064
5999999.99914
6000000.00137
5999999.99934
5999999.99935
6000000.00161
5999999.99769
6000000.00226
6000000.00026
6000000.00006
6000000.00016
6000000.00001
6000000.00001
6000000.00003
6000000.00037
5999999.99884
6000000.00154
5999999.99722
5999999.9997
5999999.99808
6000000.00207
6000000.00658
5999999.99865
5999999.99308
6000000.00313
6000000.0074
5999999.99758
6000000.00352
5999999.99826
6000000.00736
5999999.99615
5999999.99644
5999999.99619
6000000.00168
6000000.00261
5999999.99485
6000000.00201
6000000.0012
5999999.99981
6000000.00106
5999999.99816
6000000.00053
6000000.00076
5999999.99759
6000000.00259
6000000.00223
6000000.00093
6000000.00023
5999999.9997
5999999.99684
5999999.99728
6000000.0008
6000000.00111
5999999.99973
5999999.99823
5999999.99744
6000000.00073
5999999.99653
6000000.00081
5999999.99647
5999999.9942
5999999.99661
6000000.00371
5999999.99705
5999999.99632
6000000.00728
5999999.99874
6000000.00308
5999999.99988
5999999.99621
6000000.0039
5999999.99509
6000000.00395
5999999.99991
5999999.99931
6000000.00132
5999999.9997
6000000.00106
6000000.00009
6000000.00099
6000000.00169
5999999.99794
6000000.00313
6000000.00147
5999999.99702
6000000.002
6000000.00025
6000000.00002
6000000.00389
5999999.99766
6000000.00411
6000000.00284
5999999.99396
5999999.99177
5999999.99533
5999999.99869
6000000.00135
6000000.00241
6000000.00326
5999999.99376
5999999.99142
6000000.00161
5999999.99586
5999999.99877
6000000.00507
5999999.99822
5999999.99874
6000000.00241
5999999.99636
5999999.99797
6000000.00651
5999999.99604
5999999.99908
5999999.99432
6000000.00222
6000000.00518
5999999.99954
5999999.99805
5999999.99148
6000000.00454
5999999.99895
6000000.00479
5999999.99897
5999999.99645
6000000.00332
5999999.99476
5999999.9938
6000000.00034
6000000.00279
5999999.99822
5999999.99802
5999999.99775
6000000.00182
6000000.0019
5999999.99731
6000000.00214
5999999.99845
5999999.99941
6000000.00115
5999999.999
5999999.9996
5999999.99993
6000000.00068
6000000.00134
5999999.99714
6000000.00168
6000000.00049
5999999.99953
5999999.99749
6000000.00184
6000000.00045
5999999.99896
6000000.00182
6000000.00146
5999999.99764
5999999.99945
6000000.00034
5999999.99924
5999999.99649
5999999.99687
5999999.9987
5999999.99528
6000000.00281
6000000.00209
6000000.00019
6000000.00055
5999999.99902
6000000.00329
5999999.998
6000000.00308
6000000.00204
5999999.99551
6000000.00456
6000000.00134
6000000.0005
6000000.00077
5999999.99815
6000000.00215
6000000.00025
5999999.99899
6000000.00138
6000000.00008
5999999.99929
5999999.99705
6000000.0047
5999999.99653
5999999.99955
6000000.0019
5999999.99673
6000000.00393
5999999.99581
6000000.00276
5999999.99905
5999999.99912
5999999.99704
6000000.00259
6000000.00633
5999999.99808
5999999.99799
6000000.0012
6000000.00278
5999999.99801
5999999.99718
6000000.00619
5999999.99796
5999999.99973
5999999.99959
6000000.00079
6000000.00327
5999999.99758
6000000.0046
5999999.99838
5999999.99865
6000000.00197
6000000.0003
5999999.9996
6000000.00343
6000000.00039
6000000.00304
5999999.99868
5999999.99912
5999999.9995
5999999.99756
5999999.99418
6000000.0028
6000000.00138
5999999.99848
5999999.99956
5999999.99867
6000000.00016
5999999.99811
6000000.00112
5999999.99874
6000000.00049
5999999.99944
5999999.99988
6000000.0003
5999999.99816
6000000.00088
6000000.00023
5999999.99987
5999999.99989
5999999.99981
6000000.00017
6000000.00033
5999999.99978
5999999.99994
5999999.99982
6000000.00002
5999999.99981
5999999.99992
5999999.9997
5999999.99941
5999999.99999
6000000
5999999.99981
5999999.99998
6000000.00006
5999999.99993
5999999.99859
6000000.0026
5999999.99826
5999999.99928
5999999.99903
5999999.99924
6000000.00008
5999999.99991
6000000.00001
5999999.99974
6000000.00155
6000000.00064
6000000.00011
6000000.00023
5999999.99936
5999999.99757
6000000.00272
6000000.00325
5999999.99846
5999999.99312
5999999.99307
6000000.0014
6000000.00641
6000000.00256
6000000.00397
5999999.99663
6000000.00459
5999999.99336
6000000.00107
5999999.99612
6000000.0004
5999999.99996
6000000.00323
5999999.99891
6000000.00198
5999999.9977
6000000.00178
5999999.99968
6000000.00002
6000000.00026
6000000.00038
6000000.00003
5999999.99962
6000000.00307
5999999.99968
6000000.00001
6000000.00002
5999999.99992
5999999.99989
6000000.00005
6000000.00059
5999999.99888
5999999.99884
5999999.99889
5999999.99927
5999999.99989
5999999.99854
5999999.99657
6000000.00184
6000000.00078
6000000.00085
6000000.00229
5999999.99746
5999999.99728
6000000.00761
6000000.00343
6000000.00146
6000000.00311
5999999.99716
5999999.99879
6000000.00098
5999999.99914
6000000.00088
6000000.00018
6000000.00056
6000000.00055
6000000.0025
5999999.99946
5999999.99773
6000000.00049
5999999.99965
5999999.99972
6000000.00481
5999999.9992
5999999.99773
6000000.0031
6000000.00175
6000000.00047
6000000.00101
5999999.99643
5999999.99763
6000000.00483
6000000.00553
6000000.00274
5999999.99674
5999999.99763
6000000.00314
5999999.99989
5999999.99797
5999999.99679
6000000.00418
6000000.00314
5999999.99976
6000000.00194
5999999.99783
6000000.00141
5999999.99951
6000000.00063
6000000.0008
6000000.0005
6000000.00116
5999999.99947
5999999.99904
6000000.00144
6000000.00113
5999999.99385
5999999.99441
6000000.00356
6000000.00083
5999999.99931
5999999.99843
6000000.00313
5999999.99711
6000000.00082
6000000.00146
6000000.00296
5999999.99322
6000000.00283
6000000.00165
6000000.00505
5999999.99547
5999999.99772
6000000.00151
6000000.00053
5999999.99471
5999999.9978
6000000.00493
6000000.00592
5999999.99938
6000000.00179
6000000.00129
6000000.00432
5999999.99722
6000000.00147
6000000.00177
5999999.99538
6000000.00328
6000000.00335
6000000.00563
6000000.00875
5999999.99528
5999999.99795
6000000.00388
6000000.00686
5999999.9944
5999999.99481
6000000.00262
5999999.99791
6000000
6000000.0007
5999999.99607
6000000.0019
5999999.99698
6000000.00053
5999999.99598
5999999.99398
6000000.00393
6000000.00336
5999999.99843
6000000.00326
6000000.0013
6000000.00012
5999999.99977
5999999.99855
5999999.99712
6000000.00388
6000000.00763
5999999.99647
5999999.99858
5999999.99226
6000000.00501
6000000.00628
5999999.99558
5999999.99732
5999999.99578
5999999.99728
5999999.99639
6000000.001
5999999.99911
6000000.00184
5999999.999
5999999.99977
6000000.00341
5999999.99433
5999999.99457
5999999.99623
6000000.00711
6000000.00024
5999999.99855
6000000.00094
5999999.99986
6000000.00268
5999999.99906
6000000.0016
6000000.00608
5999999.9962
5999999.99401
5999999.99252
6000000.00303
6000000.00275
5999999.99198
5999999.99657
5999999.99681
6000000.0014
5999999.99866
5999999.99306
6000000.00403
6000000.00465
5999999.9999
6000000.0009
5999999.99999
6000000.00062
6000000.00085
6000000.0005
6000000.00005
5999999.99997
5999999.99991
5999999.99988
6000000.00015
6000000.00031
5999999.99836
6000000.00207
6000000.0066
6000000.00004
6000000.00095
6000000.00288
5999999.99924
6000000.00352
6000000.00125
5999999.9999
5999999.99988
5999999.99984
6000000.00152
5999999.99744
5999999.99712
6000000.0011
5999999.9961
6000000.00108
5999999.99864
5999999.9995
5999999.99921
5999999.99988
5999999.99984
6000000.00004
6000000.0004
5999999.9978
6000000.00343
5999999.99858
5999999.999
5999999.99992
5999999.99776
6000000.00107
6000000.00115
6000000.00012
6000000.00041
5999999.99885
6000000.00383
5999999.99987
5999999.99999
6000000.00051
5999999.99962
6000000.00041
5999999.99764
6000000.00597
6000000.00351
5999999.99482
5999999.99835
6000000.00227
5999999.99805
6000000.00349
5999999.99888
5999999.9999
6000000.00006
5999999.99948
6000000.00027
5999999.99915
6000000.00083
5999999.99698
6000000.00197
6000000.00106
6000000.00102
5999999.99965
6000000.00015
5999999.99685
6000000.00712
6000000.00356
5999999.99372
6000000.00146
6000000.00308
6000000.00462
5999999.99598
5999999.99523
6000000.00415
5999999.99858
5999999.99943
6000000.00021
5999999.99996
5999999.99992
5999999.99996
6000000.00002
5999999.99989
5999999.99993
5999999.99988
6000000.00023
5999999.9983
6000000.0026
5999999.9972
5999999.99959
6000000.00131
5999999.99298
6000000.00526
6000000.00518
6000000.00171
5999999.99927
6000000.00326
6000000.00541
5999999.99653
5999999.99529
6000000.00306
5999999.99909
6000000.00334
6000000.0054
6000000.00054
6000000.00596
6000000.0001
5999999.99979
6000000.00086
6000000.00069
5999999.99985
6000000.00002
6000000.00359
5999999.99791
6000000.0007
6000000.00182
6000000.00325
6000000.00293
5999999.99441
6000000.00198
6000000.00067
6000000.00085
5999999.99903
6000000.00513
6000000.00353
5999999.99755
6000000.00293
6000000.00029
5999999.9992
6000000.00063
5999999.99935
6000000.00228
5999999.99328
6000000.00266
6000000.00157
6000000.00013
5999999.99877
6000000.00017
6000000.00123
5999999.99973
6000000.00002
6000000.00002
6000000
6000000.00001
5999999.99989
6000000.00001
5999999.99981
5999999.99995
6000000.00029
5999999.99898
6000000.00169
5999999.99961
5999999.9998
5999999.99969
6000000.00025
5999999.99824
6000000.00071
6000000.00045
6000000.00071
5999999.99752
5999999.99796
6000000.00112
6000000.00186
5999999.99847
6000000.00098
5999999.99819
6000000.00299
6000000.00263
6000000.0005
6000000.00032
5999999.99961
5999999.99896
6000000.00225
5999999.99526
6000000.00663
5999999.99679
5999999.99453
6000000.00378
6000000.00438
6000000.00531
5999999.99993
6000000.0002
5999999.99453
5999999.9953
5999999.99527
6000000.00189
5999999.99771
6000000.00518
5999999.99917
5999999.99737
6000000.00072
5999999.99726
6000000.00203
5999999.99804
6000000.00515
5999999.99258
5999999.9953
6000000.00426
5999999.99482
5999999.99674
5999999.99815
6000000.00195
6000000.00173
6000000.00122
6000000.00002
6000000.00105
6000000.00068
6000000.00255
5999999.99636
6000000.00224
6000000.0013
5999999.99974
5999999.99814
5999999.99994
6000000.00001
5999999.99827
5999999.99884
6000000.00145
5999999.99993
6000000.0016
6000000.00218
5999999.9973
5999999.99901
6000000.00468
5999999.9992
5999999.9997
5999999.99989
6000000.00001
6000000.00001
6000000.00014
6000000.00003
5999999.99983
6000000.00058
6000000.00012
5999999.99631
6000000.0009
5999999.99956
5999999.99988
5999999.99998
6000000.00038
5999999.99796
6000000.0036
6000000.00201
5999999.99513
6000000.00668
5999999.99384
5999999.99294
6000000.00274
6000000.00547
5999999.99148
5999999.99754
5999999.99714
5999999.9993
6000000.00153
5999999.99788
6000000.00124
5999999.99607
5999999.99699
6000000.00055
5999999.99739
6000000.00344
5999999.9981
6000000.00166
6000000.00304
5999999.99532
5999999.99518
5999999.99415
5999999.99935
6000000.00486
6000000.00216
5999999.99607
5999999.99303
6000000.00414
6000000.00302
5999999.99334
5999999.99906
6000000.0059
6000000.00447
5999999.99777
5999999.99776
6000000.00447
5999999.99967
6000000.00002
6000000.00001
5999999.99987
6000000.00093
6000000.00153
5999999.99846
5999999.99817
5999999.99859
6000000.00043
6000000.00172
5999999.99951
6000000.00069
5999999.9983
5999999.99772
6000000.00153
6000000.00057
6000000.00028
6000000.00002
6000000.00004
5999999.99991
5999999.99994
6000000.00039
5999999.99908
5999999.99876
6000000.00017
6000000.00249
5999999.99788
5999999.99986
6000000.00007
5999999.99446
6000000.00042
6000000.00055
6000000.00452
6000000.00175
5999999.99942
6000000.00144
6000000.00048
5999999.99784
6000000.00317
5999999.99648
6000000.00311
6000000.00075
6000000.00488
5999999.99916
5999999.9997
6000000.00596
6000000.0024
6000000.00371
6000000.00214
5999999.99637
5999999.99875
6000000.00299
5999999.99955
5999999.99737
5999999.9971
6000000.00255
5999999.99757
5999999.99895
5999999.99678
6000000.00029
6000000.00228
5999999.99835
5999999.99847
5999999.99884
5999999.99981
5999999.99986
6000000.00147
6000000.00056
6000000.00071
5999999.99899
6000000.00163
6000000.00158
5999999.99826
5999999.99988
6000000.0001
6000000.00002
6000000.00011
5999999.99997
6000000.00108
6000000.00119
5999999.99804
6000000.00282
6000000.00195
5999999.99627
6000000.00509
5999999.9949
5999999.99819
6000000.00265
6000000.00656
6000000.00304
6000000.00253
6000000.00171
5999999.9923
5999999.99724
5999999.99862
5999999.99907
6000000.00382
6000000.00486
5999999.99333
5999999.99688
5999999.99474
6000000.00591
6000000.00271
6000000.00304
5999999.99868
6000000.00093
6000000.00076
6000000.00194
5999999.99956
5999999.9991
5999999.99977
6000000.00003
5999999.99991
6000000.00086
5999999.9992
6000000.00113
5999999.99977
6000000.00001
5999999.99866
5999999.99607
6000000.00367
6000000.00114
5999999.99593
5999999.99475
6000000.00577
5999999.99819
5999999.99565
6000000.0017
6000000.00638
5999999.99521
6000000.00442
5999999.99879
5999999.99785
6000000.00576
5999999.9993
6000000.00015
5999999.99998
6000000
6000000.00007
6000000.00001
6000000.00007
6000000.00002
6000000.00007
6000000.0002
6000000.00025
6000000.00003
6000000.00015
5999999.99934
6000000.00109
6000000.00148
5999999.99488
6000000.00331
6000000.00508
5999999.99864
6000000.00178
6000000.00245
6000000.00227
5999999.99915
6000000.00034
5999999.9938
6000000.00125
5999999.99943
6000000.00134
6000000.00297
5999999.99897
5999999.99877
5999999.99938
5999999.99887
6000000.00027
5999999.99849
6000000.00124
6000000.00187
5999999.9983
5999999.99943
5999999.99875
6000000.00135
5999999.99973
5999999.99999
5999999.99986
5999999.9993
6000000.00082
5999999.99909
5999999.99798
6000000.00366
5999999.99634
6000000.00157
5999999.99892
5999999.99929
5999999.99989
5999999.9992
6000000.002
5999999.9954
6000000.00201
5999999.99939
5999999.99922
6000000.00004
5999999.99944
5999999.99987
5999999.9996
6000000.00111
5999999.99846
5999999.99946
5999999.99995
5999999.99993
5999999.99992
5999999.99998
6000000.00009
5999999.99993
5999999.9997
6000000
5999999.9999
5999999.9999
6000000.00001
5999999.99943
6000000.00182
5999999.99952
6000000.00016
6000000.00013
6000000.00141
5999999.99812
6000000.00157
5999999.99624
6000000.00259
6000000.00167
6000000.00202
6000000.00238
5999999.99686
5999999.99928
5999999.99807
6000000.0025
5999999.99901
5999999.99798
6000000.00167
5999999.99825
5999999.99914
5999999.99962
6000000.0001
6000000.00427
6000000.00193
6000000.00334
5999999.99909
6000000.00033
6000000.00246
5999999.9949
6000000.0008
5999999.99647
6000000.00533
6000000.00202
5999999.99416
5999999.99539
5999999.99522
6000000.00591
6000000.0019
6000000.00591
5999999.997
5999999.99791
6000000.00077
5999999.995
5999999.9942
5999999.99692
5999999.99821
6000000.00224
5999999.99483
5999999.99672
5999999.99336
6000000.00046
5999999.99509
5999999.99801
5999999.99667
5999999.99658
5999999.99516
5999999.9946
6000000.00405
6000000.00135
6000000.00135
5999999.99405
6000000.00237
5999999.99965
6000000.00019
6000000.00113
5999999.99863
6000000.00028
5999999.99594
6000000.00321
5999999.9947
5999999.99484
6000000.00242
5999999.99446
5999999.99517
6000000.00603
5999999.99533
5999999.99386
6000000.00104
6000000.00201
5999999.99955
6000000.00135
6000000.00055
6000000.00034
5999999.99997
6000000.00068
5999999.99952
6000000.00055
5999999.99905
6000000.00025
6000000.00022
5999999.99992
5999999.99993
6000000.00008
6000000.00158
5999999.99977
5999999.99965
6000000.00128
6000000.00008
5999999.99951
5999999.99968
5999999.99948
5999999.99907
6000000.00027
6000000.00003
6000000.00035
5999999.99958
5999999.99912
6000000.00063
6000000.00208
5999999.99825
6000000.00087
6000000.00286
6000000.00265
5999999.99614
5999999.99744
6000000.00326
5999999.99937
6000000.00143
6000000.00054
5999999.9967
6000000.00295
6000000.00243
6000000.0001
5999999.99863
6000000.00006
5999999.99829
6000000.00355
6000000.00029
6000000.00119
5999999.99877
5999999.99759
6000000.00635
6000000.00586
5999999.99315
5999999.99736
6000000.00178
6000000.00141
5999999.99882
6000000.00124
5999999.99989
6000000.00331
5999999.99917
6000000.00242
5999999.99967
5999999.99957
5999999.99997
6000000.00004
5999999.99996
5999999.99998
5999999.99998
6000000.00001
6000000.00004
6000000.00014
6000000
6000000
6000000.00001
5999999.99998
6000000.00019
5999999.99997
6000000.00001
5999999.99993
5999999.99996
6000000.00021
6000000.00025
5999999.99995
6000000.00014
5999999.99999
6000000
5999999.99972
6000000.0003
5999999.99995
6000000.0003
5999999.99944
5999999.99929
5999999.99923
6000000.00053
5999999.99969
6000000.00278
5999999.99939
5999999.99967
5999999.99966
6000000.00017
6000000.00004
6000000.00013
5999999.99993
6000000.00001
6000000
6000000.00013
5999999.99904
6000000.00062
5999999.99886
6000000.00351
5999999.99943
5999999.99888
6000000.00151
5999999.99885
6000000.00377
6000000.00379
5999999.99865
5999999.9998
6000000.00627
6000000.00087
6000000.0007
6000000.00094
5999999.99968
6000000.00003
6000000.00007
6000000.00026
6000000.00008
6000000.00007
6000000.00028
5999999.99905
6000000.00123
6000000.00072
6000000.00045
6000000.00029
5999999.99939
5999999.99997
5999999.99992
6000000.00002
5999999.99997
6000000.00099
5999999.99884
5999999.99725
6000000.00249
5999999.99788
6000000.00235
5999999.99639
5999999.99908
5999999.99972
5999999.99698
5999999.99977
6000000.00404
5999999.99501
5999999.99386
6000000.00197
5999999.99327
5999999.99374
6000000.00104
5999999.99719
5999999.99863
5999999.99576
6000000.00236
6000000.00231
5999999.99668
6000000.00433
5999999.99795
5999999.99778
6000000.00243
6000000.00258
5999999.99958
5999999.99931
5999999.99965
6000000.00007
5999999.99982
5999999.99933
6000000.0018
5999999.99945
6000000.00201
5999999.99858
5999999.99815
6000000.00013
5999999.99885
5999999.99939
5999999.99821
5999999.99863
5999999.99865
5999999.99984
5999999.99861
6000000.00374
5999999.9995
5999999.99783
5999999.99981
5999999.99999
5999999.99996
5999999.99983
5999999.99983
6000000.00022
5999999.99998
5999999.99996
6000000.00014
6000000.00013
5999999.99998
6000000.00007
5999999.99998
6000000.00017
6000000.00065
6000000.0005
5999999.99767
5999999.99801
6000000.00118
6000000.00019
5999999.99998
5999999.99997
6000000.00001
5999999.99989
5999999.99969
6000000.0001
5999999.99999
5999999.99906
6000000.00071
5999999.9997
6000000.0015
5999999.99902
6000000.00022
6000000.00181
5999999.99944
6000000.00035
5999999.99942
6000000.00004
5999999.99991
5999999.99999
5999999.99983
5999999.99991
6000000.00001
5999999.99937
5999999.99851
6000000.0002
5999999.99909
6000000.00239
5999999.99796
6000000.00103
6000000.00057
5999999.99986
6000000.00035
6000000.0013
5999999.99908
5999999.99602
6000000.00368
6000000.00018
6000000.00015
6000000.00072
6000000.00181
6000000.00042
5999999.99733
6000000.00422
6000000.00307
5999999.99978
5999999.998
6000000.00222
6000000.00171
5999999.99882
6000000.00514
6000000.00031
6000000.00249
5999999.99691
5999999.99753
6000000.00126
5999999.99908
5999999.99972
5999999.99689
6000000.00399
6000000.00103
5999999.99876
6000000.00028
5999999.9984
6000000.00339
5999999.99836
6000000.0017
5999999.9946
6000000.00631
6000000.00485
5999999.99822
6000000.00108
5999999.99287
5999999.99243
6000000.0033
6000000.00246
6000000.00445
5999999.998
5999999.99531
6000000.00424
5999999.99611
5999999.9988
5999999.99886
5999999.9981
6000000.0011
5999999.99909
6000000.00016
5999999.99981
5999999.99947
6000000.00036
5999999.99776
6000000.00209
5999999.99963
5999999.99885
6000000.00254
5999999.99801
6000000.00131
5999999.99612
6000000.00032
5999999.99999
5999999.99964
5999999.99847
5999999.99844
6000000.00154
6000000.00174
5999999.99921
6000000.00686
6000000.00253
5999999.99407
6000000.00306
5999999.99851
6000000.00699
6000000.0053
5999999.99739
5999999.99581
5999999.99877
6000000.00645
6000000.00194
5999999.99715
5999999.99598
5999999.99536
6000000.00292
5999999.9969
5999999.99479
5999999.99808
5999999.99479
6000000.00404
5999999.99732
5999999.99654
5999999.99865
6000000.00173
5999999.9975
5999999.9974
6000000.00138
6000000.00126
5999999.99631
5999999.99763
5999999.99557
5999999.99565
5999999.99736
5999999.99859
6000000.00087
5999999.99289
5999999.99407
6000000.00182
6000000.00042
5999999.99524
5999999.99572
5999999.99503
5999999.99376
6000000.00428
5999999.99691
5999999.99234
6000000.00016
5999999.99591
6000000.00235
6000000.00508
5999999.99261
5999999.99452
5999999.9976
6000000.00548
6000000.00082
5999999.99769
6000000.00316
6000000.00571
5999999.99977
6000000.006
5999999.99625
5999999.99361
6000000.00361
6000000.00068
5999999.99953
5999999.99465
5999999.99643
6000000.00269
5999999.99612
5999999.99842
6000000.00212
5999999.99894
6000000.00297
6000000.00713
6000000.00318
5999999.99844
5999999.99527
5999999.99725
6000000.00578
6000000.00224
5999999.99562
5999999.99715
6000000.00085
6000000.00622
6000000.00095
5999999.99892
5999999.99977
6000000.00148
5999999.99861
5999999.99909
6000000.00346
6000000.00174
5999999.99696
6000000.00265
5999999.99668
5999999.9996
5999999.99735
6000000.00039
6000000.0022
5999999.99414
6000000.00001
6000000.00104
5999999.99416
5999999.99745
6000000.00293
5999999.99809
5999999.99811
6000000.00257
5999999.99843
5999999.99661
5999999.9956
5999999.99798
5999999.99595
5999999.99926
5999999.99794
6000000.00679
5999999.99766
6000000.0003
6000000.00529
5999999.9986
6000000.00137
5999999.99996
6000000.00847
5999999.99715
6000000.00082
6000000.00633
6000000.00684
5999999.99894
5999999.99808
6000000.00997
6000000.00779
6000000.00606
5999999.99804
5999999.99804
6000000.00798
6000000.00836
6000000.00184
6000000.0067
6000000.0023
5999999.9951
6000000.0068
6000000.00783
6000000.00015
5999999.9973
6000000.00745
6000000.00257
5999999.99407
6000000.0024
6000000.00219
6000000.00908
6000000.00766
5999999.99767
6000000.00232
6000000.00712
5999999.99615
5999999.99954
6000000.00646
6000000.00917
6000000.00053
6000000.00632
6000000.00555
6000000.0049
5999999.998
6000000.0013
6000000.00839
6000000.00954
6000000.01007
6000000.00299
6000000.00298
6000000.00642
6000000.01028
5999999.99969
6000000.00292
6000000.00575
5999999.99661
6000000.00566
6000000.00522
6000000.00987
6000000.00419
6000000.00738
6000000.00572
5999999.9936
6000000.00684
6000000.00207
5999999.99859
6000000.00874
5999999.99878
5999999.99979
5999999.99859
6000000.00039
5999999.9983
5999999.99963
5999999.99898
5999999.9995
5999999.99927
5999999.99951
5999999.99722
5999999.99772
5999999.99954
5999999.99811
6000000.00021
5999999.99824
5999999.99866
5999999.9983
6000000.0001
5999999.99788
5999999.99748
5999999.99856
5999999.99969
5999999.99853
5999999.99861
5999999.99958
5999999.99751
5999999.99843
5999999.99931
5999999.99581
5999999.99847
6000000.00024
5999999.9992
5999999.99672
5999999.99938
5999999.99743
5999999.9999
5999999.99887
5999999.9987
5999999.99676
5999999.99898
6000000.00003
5999999.9978
5999999.99948
5999999.9996
5999999.9987
5999999.99881
5999999.99911
5999999.99664
5999999.99685
5999999.99941
5999999.99995
6000000.00022
6000000.00042
5999999.99833
5999999.99895
5999999.99792
5999999.99829
5999999.99826
5999999.99875
5999999.99957
6000000.00039
6000000.00205
5999999.99832
5999999.99935
5999999.99945
5999999.99988
5999999.99974
6000000.00064
5999999.99981
5999999.99954
6000000.00022
5999999.99973
5999999.9997
5999999.99975
5999999.99979
6000000.00038
6000000.00001
5999999.9998
5999999.99961
6000000.00027
6000000.00036
5999999.99986
6000000.00029
5999999.99989
6000000.00037
5999999.99992
5999999.99985
6000000.00024
5999999.99998
6000000.0004
5999999.99987
6000000.00001
5999999.99954
6000000.0003
6000000.00046
6000000.00024
6000000.0005
5999999.99997
6000000.00049
6000000.00048
5999999.99974
6000000.00024
5999999.99992
6000000.00029
6000000.00009
5999999.99972
6000000.00085
6000000.00022
6000000.00049
6000000.00026
5999999.99957
5999999.99989
5999999.99973
6000000.00013
6000000.00006
6000000.00035
6000000.00043
5999999.9997
6000000.00005
6000000.00023
6000000.00009
6000000.00029
6000000.00016
6000000.00021
6000000.00042
5999999.99974
6000000.00057
6000000.00071
6000000.00102
6000000.00095
6000000.00105
6000000.00058
6000000.00101
6000000.00085
6000000.00121
6000000.00083
6000000.00079
6000000.0009
6000000.00088
6000000.00083
6000000.0008
6000000.0009
6000000.00095
6000000.00081
6000000.00096
6000000.00111
6000000.00089
6000000.0011
6000000.00119
6000000.00071
6000000.00101
6000000.00096
6000000.00089
6000000.00073
6000000.00055
6000000.00101
6000000.00089
6000000.00088
6000000.00086
6000000.00087
6000000.00116
6000000.00073
6000000.00094
6000000.00073
6000000.00082
6000000.00063
6000000.00085
6000000.00099
6000000.00108
6000000.00098
6000000.00091
6000000.00092
6000000.00094
6000000.00077
6000000.00104
6000000.0012
6000000.00125
6000000.00075
6000000.0009
6000000.0008
6000000.00096
6000000.00097
6000000.00095
6000000.00098
6000000.00103
6000000.00102
6000000.00102
6000000.0009
6000000.00122
6000000.00134
6000000.00086
5999999.99901
5999999.9987
5999999.99882
5999999.99904
5999999.99876
5999999.99916
5999999.99881
5999999.9988
5999999.9987
5999999.99873
5999999.99885
5999999.99898
5999999.99902
5999999.99884
5999999.99861
5999999.99873
5999999.9988
5999999.99899
5999999.99886
5999999.99905
5999999.9988
5999999.99875
5999999.99913
5999999.99898
5999999.99873
5999999.99889
5999999.99933
5999999.99875
5999999.99894
5999999.99908
5999999.999
5999999.99942
5999999.99911
5999999.99908
5999999.99891
5999999.99888
5999999.99909
5999999.99868
5999999.99858
5999999.9987
5999999.99903
5999999.99911
5999999.99887
5999999.99902
5999999.99895
5999999.99898
5999999.99925
5999999.99901
5999999.99881
5999999.99901
5999999.99888
5999999.99866
5999999.99884
5999999.99864
5999999.99892
5999999.99889
5999999.99894
5999999.99898
5999999.99889
5999999.99885
5999999.99882
5999999.99904
5999999.99881
5999999.99889
5999999.99953
5999999.99933