/*--------------------------------*- C++ -*----------------------------------*\
  =========                 |
  \\      /  F ield         | OpenFOAM: The Open Source CFD Toolbox
   \\    /   O peration     | Website:  https://openfoam.org
    \\  /    A nd           | Version:  6
     \\/     M anipulation  |
\*---------------------------------------------------------------------------*/
FoamFile
{
    version     2.0;
    format      ascii;
    class       volVectorField;
    location    "4.91e-05";
    object      U;
}
// * * * * * * * * * * * * * * * * * * * * * * * * * * * * * * * * * * * * * //

dimensions      [0 1 -1 0 0 0 0];

internalField   nonuniform List<vector> 
8192
(
(-88.322 0 -2.87979342195e-10)
(-88.3219999996 0 -9.130154605e-11)
(-88.3220000002 0 -7.17702205024e-11)
(-88.3220000004 0 -3.00521576858e-10)
(-88.3219999994 0 -6.56695001845e-11)
(-88.3219999997 0 -1.29444384731e-12)
(-88.3220000003 0 -2.55866936748e-12)
(-88.322 0 1.30381922291e-10)
(-88.322 0 -2.8129875372e-10)
(-88.322 0 -5.92134371347e-10)
(-88.3219999999 0 -7.48044695736e-10)
(-88.322 0 3.79529917346e-10)
(-88.3220000002 0 6.76548595618e-10)
(-88.3220000001 0 -7.87933102163e-10)
(-88.3219999998 0 -6.35717363966e-10)
(-88.3219999999 0 3.78814987671e-10)
(-88.3219999998 0 3.35887841065e-10)
(-88.3219999999 0 7.07907983619e-10)
(-88.3220000002 0 -4.30595360134e-10)
(-88.3219999999 0 -6.01733635717e-10)
(-88.3219999996 0 2.63174042294e-10)
(-88.3220000004 0 3.96244410907e-10)
(-88.3220000004 0 -6.47772072288e-10)
(-88.3219999998 0 -5.90068513913e-10)
(-88.322 0 1.86142727726e-10)
(-88.3219999998 0 1.97585707704e-10)
(-88.3219999999 0 2.48589441109e-10)
(-88.3219999999 0 2.07634511415e-10)
(-88.3220000002 0 3.31395346675e-10)
(-88.3220000002 0 -1.73055073462e-10)
(-88.322 0 2.29801351554e-10)
(-88.3219999996 0 -7.03724346565e-11)
(-88.3219999988 0 1.34726942904e-10)
(-88.322000002 0 5.69262211541e-10)
(-88.3220000028 0 -8.98233115184e-10)
(-88.3219999986 0 -6.53394051516e-10)
(-88.3219999995 0 -9.59467150348e-12)
(-88.3219999996 0 -5.82623825292e-10)
(-88.3219999985 0 1.68697525229e-10)
(-88.3220000006 0 1.89014370521e-10)
(-88.3220000001 0 -7.09313739216e-11)
(-88.3219999998 0 7.3518587384e-11)
(-88.3220000002 0 -1.55021709368e-11)
(-88.322 0 -1.55766539048e-11)
(-88.322 0 -6.12506485879e-11)
(-88.322 0 -4.08831834787e-11)
(-88.322 0 -2.13349480245e-11)
(-88.322 0 -1.9978037235e-11)
(-88.3220000001 0 3.30323787632e-11)
(-88.3219999998 0 -1.04754223708e-10)
(-88.3219999999 0 1.43782584797e-10)
(-88.3220000007 0 -7.349502816e-11)
(-88.3219999994 0 -2.23043039949e-10)
(-88.3219999992 0 3.69429337108e-10)
(-88.3220000012 0 2.03172093363e-10)
(-88.3220000007 0 -2.03846050217e-10)
(-88.322 0 -2.7830035075e-11)
(-88.3219999998 0 -1.83153690314e-10)
(-88.3220000002 0 -4.66938181308e-11)
(-88.3219999991 0 -3.24681931276e-10)
(-88.3219999983 0 3.56417420287e-10)
(-88.3219999998 0 4.06353247604e-10)
(-88.322000001 0 3.68168693503e-10)
(-88.3220000014 0 -4.76847219504e-11)
(-88.3220000001 0 -3.59095175549e-10)
(-88.3219999998 0 -9.47318104458e-11)
(-88.3220000002 0 1.4542608186e-10)
(-88.3219999996 0 1.95868878927e-11)
(-88.322 0 2.82066814514e-10)
(-88.3220000002 0 -1.23313202382e-10)
(-88.3219999994 0 5.89743241611e-11)
(-88.3220000006 0 3.63426800313e-12)
(-88.3220000014 0 -9.62147418229e-12)
(-88.3220000008 0 -6.71805348202e-11)
(-88.3219999982 0 7.47094932219e-11)
(-88.3219999971 0 -2.619792761e-10)
(-88.3220000021 0 -2.64403240851e-11)
(-88.3220000025 0 -1.94654204761e-10)
(-88.3219999979 0 -3.31207324911e-10)
(-88.3219999982 0 3.29537521149e-10)
(-88.3219999995 0 2.51302105508e-10)
(-88.3220000017 0 1.51609887498e-10)
(-88.3220000024 0 -3.56554374801e-10)
(-88.3219999988 0 -2.02349779266e-10)
(-88.3219999983 0 -6.69985374932e-11)
(-88.3220000014 0 -2.79568266766e-11)
(-88.3220000017 0 2.18286904429e-10)
(-88.3219999986 0 -7.06339343541e-11)
(-88.3219999985 0 4.63293232581e-10)
(-88.322 0 -1.87560052117e-10)
(-88.3220000001 0 3.13815841254e-10)
(-88.3219999999 0 3.07669983094e-10)
(-88.3220000006 0 -8.7602021282e-11)
(-88.322 0 -1.29218509676e-12)
(-88.3219999998 0 8.81280508207e-11)
(-88.3220000005 0 2.93141285255e-11)
(-88.3219999998 0 -2.51955726079e-10)
(-88.3220000003 0 -4.8109206291e-10)
(-88.322 0 5.97335730138e-10)
(-88.3219999995 0 6.73293861489e-10)
(-88.3220000002 0 9.59336650005e-12)
(-88.322 0 3.13496576541e-10)
(-88.322 0 -1.66383542289e-10)
(-88.322 0 -2.42128262227e-10)
(-88.322 0 1.83706136836e-10)
(-88.3220000001 0 -1.0170934289e-10)
(-88.322 0 8.43560220909e-11)
(-88.322 0 -2.20072554213e-10)
(-88.322 0 -4.05017021719e-10)
(-88.322 0 -3.51536231869e-10)
(-88.322 0 -3.41122796481e-10)
(-88.322 0 -4.26587128205e-10)
(-88.322 0 -3.88089099619e-10)
(-88.322 0 -7.54789610294e-11)
(-88.322 0 3.15343722284e-10)
(-88.3220000001 0 -1.00254191932e-10)
(-88.3219999998 0 6.41732566231e-11)
(-88.322 0 -1.15262298061e-10)
(-88.3220000001 0 -3.05192764524e-10)
(-88.3219999999 0 4.19668693727e-10)
(-88.322 0 -1.92641073098e-10)
(-88.3220000001 0 -1.52732852335e-10)
(-88.322 0 -3.82029743088e-10)
(-88.3219999999 0 9.53451956851e-10)
(-88.322 0 3.58575820531e-10)
(-88.3220000001 0 -8.26450252553e-10)
(-88.3220000002 0 -1.13808467632e-09)
(-88.322 0 -4.58998714434e-10)
(-88.3219999993 0 8.59880948742e-11)
(-88.3219999987 0 1.20139767279e-10)
(-88.322 0 -3.64144132609e-11)
(-88.3220000001 0 2.15605416074e-10)
(-88.3219999999 0 -1.79089332035e-10)
(-88.3220000001 0 1.6157032443e-10)
(-88.322 0 -5.07573656874e-11)
(-88.322 0 -1.22524563106e-10)
(-88.3220000002 0 2.49376221727e-10)
(-88.3219999998 0 5.50182435021e-10)
(-88.3220000003 0 7.08234638266e-10)
(-88.3220000002 0 -2.5681652825e-10)
(-88.322 0 -5.7073068589e-10)
(-88.3220000006 0 5.51379960543e-10)
(-88.3219999988 0 5.70521566337e-10)
(-88.3219999987 0 -4.02438867817e-10)
(-88.3220000002 0 -3.41401615306e-10)
(-88.322000001 0 -6.30639575995e-10)
(-88.3220000009 0 4.65284563011e-10)
(-88.3219999994 0 5.55453786567e-10)
(-88.3219999992 0 -2.20622431189e-10)
(-88.3219999998 0 -2.10589193896e-10)
(-88.3220000004 0 6.11069117555e-10)
(-88.3219999993 0 5.86668696872e-10)
(-88.3220000002 0 -9.80446783433e-11)
(-88.3220000001 0 -1.82877981894e-10)
(-88.3219999989 0 -1.00186895752e-10)
(-88.3220000008 0 1.14541153223e-10)
(-88.3220000008 0 -1.05414198233e-10)
(-88.3219999999 0 6.92932460142e-11)
(-88.3219999999 0 8.4616623747e-11)
(-88.3220000004 0 -3.05804141634e-13)
(-88.322 0 -4.98945531754e-10)
(-88.322 0 4.73763855429e-10)
(-88.3220000002 0 6.70545186376e-10)
(-88.322 0 -4.53551886261e-10)
(-88.3220000003 0 -7.44642386589e-10)
(-88.322 0 8.72963695742e-10)
(-88.3219999997 0 4.40658602817e-10)
(-88.3219999999 0 -3.67299870042e-10)
(-88.322 0 -4.71939752328e-10)
(-88.322 0 2.15637610489e-10)
(-88.3220000005 0 -2.98508349393e-10)
(-88.3220000011 0 -7.12164806447e-11)
(-88.3220000003 0 -3.76559172661e-10)
(-88.3219999998 0 6.36275066541e-11)
(-88.3220000001 0 -6.49081916382e-10)
(-88.3219999999 0 -6.06032731858e-10)
(-88.3219999994 0 5.5175959285e-10)
(-88.3219999985 0 2.66060663132e-11)
(-88.322 0 -4.44404188311e-10)
(-88.3220000011 0 1.89387183477e-10)
(-88.3219999994 0 -4.68611071202e-10)
(-88.3219999999 0 4.37878420551e-10)
(-88.322 0 9.37626526396e-11)
(-88.3220000004 0 -3.63400571802e-10)
(-88.3220000012 0 -4.05948937288e-10)
(-88.3220000003 0 -4.32339542517e-10)
(-88.3219999981 0 -1.71313210615e-10)
(-88.3219999977 0 -2.14458126833e-10)
(-88.322000002 0 -1.68386875383e-10)
(-88.3220000029 0 8.95424349292e-11)
(-88.3220000002 0 6.39793271007e-11)
(-88.3219999999 0 8.84225453233e-11)
(-88.322 0 6.70586399951e-10)
(-88.3220000001 0 2.01476424105e-10)
(-88.322 0 -7.60255132519e-11)
(-88.322 0 1.74765647745e-10)
(-88.322 0 -2.15105507871e-10)
(-88.322 0 4.58144032432e-11)
(-88.322 0 1.66958775233e-11)
(-88.322 0 4.01522471148e-11)
(-88.322 0 3.83390708901e-11)
(-88.322 0 1.02644291047e-10)
(-88.3219999998 0 -3.96507154918e-11)
(-88.3219999997 0 1.76575537138e-10)
(-88.3220000005 0 -1.97308617123e-11)
(-88.3220000002 0 4.43022558294e-10)
(-88.3219999997 0 3.70798384459e-10)
(-88.322 0 -3.21452605531e-10)
(-88.322 0 -2.40347686157e-10)
(-88.322 0 -3.17398352867e-10)
(-88.322 0 5.44679916612e-10)
(-88.322 0 4.76019200341e-10)
(-88.322 0 -5.37859901365e-10)
(-88.3219999999 0 -5.04524009862e-10)
(-88.322 0 3.35505560177e-10)
(-88.322 0 5.45318436914e-10)
(-88.322 0 -2.26305473302e-10)
(-88.322 0 6.04055599612e-10)
(-88.3219999995 0 -1.96057999904e-10)
(-88.3219999999 0 6.01414630241e-11)
(-88.3220000007 0 -1.02702806094e-10)
(-88.3219999996 0 -2.99295766092e-10)
(-88.3219999999 0 1.13683350828e-10)
(-88.3220000016 0 -9.72514278458e-11)
(-88.3219999988 0 6.80082993477e-12)
(-88.3219999981 0 -9.8250818282e-11)
(-88.3220000018 0 4.75383284778e-11)
(-88.3220000023 0 1.00053425285e-10)
(-88.3219999976 0 -8.22035081383e-11)
(-88.3219999977 0 3.87108617003e-10)
(-88.3220000024 0 -3.42910099591e-11)
(-88.3220000017 0 4.43509757838e-11)
(-88.3219999988 0 -8.96329442533e-11)
(-88.3219999998 0 -1.01859437875e-13)
(-88.3220000005 0 -1.0432820417e-10)
(-88.3220000002 0 2.21999157633e-10)
(-88.3219999997 0 4.35900361656e-10)
(-88.3220000005 0 3.49595308596e-10)
(-88.3220000013 0 3.70020188019e-10)
(-88.3219999976 0 2.90592919286e-10)
(-88.3219999989 0 5.52126491088e-10)
(-88.3220000019 0 1.96773212335e-10)
(-88.3219999998 0 -3.82924817736e-10)
(-88.3220000002 0 1.0981900474e-10)
(-88.3219999992 0 -2.2687518955e-10)
(-88.3219999989 0 2.35612373407e-10)
(-88.3220000016 0 6.09092978392e-10)
(-88.3220000009 0 -5.674824335e-10)
(-88.3220000001 0 -1.97632302984e-10)
(-88.3219999997 0 4.48249207285e-10)
(-88.3219999996 0 4.21296808416e-11)
(-88.3219999998 0 -5.08133835276e-10)
(-88.3219999995 0 -1.13204731535e-09)
(-88.3219999997 0 8.64626447161e-10)
(-88.3220000001 0 1.04228959312e-09)
(-88.322 0 8.11448212294e-10)
(-88.3220000005 0 -3.2397196689e-10)
(-88.3220000001 0 -1.45249189939e-10)
(-88.322 0 2.75920332504e-10)
(-88.3220000004 0 -4.333192081e-11)
(-88.322 0 -6.70747965994e-11)
(-88.3219999996 0 -7.62046739911e-12)
(-88.322 0 -5.82522314099e-12)
(-88.322 0 4.30232453594e-11)
(-88.322 0 1.61476192639e-11)
(-88.322 0 -1.03182751382e-11)
(-88.3220000001 0 7.82420892352e-11)
(-88.3220000002 0 -2.97233863189e-10)
(-88.3219999996 0 -3.11012480566e-10)
(-88.3219999998 0 5.33173797665e-11)
(-88.3220000003 0 -2.90572164285e-11)
(-88.322 0 3.8952402241e-11)
(-88.3220000002 0 1.78719895773e-10)
(-88.3219999994 0 1.69443486213e-10)
(-88.3219999994 0 -2.95087522726e-11)
(-88.3220000016 0 -4.9639846788e-12)
(-88.3220000012 0 3.66604952115e-11)
(-88.321999998 0 3.91982492364e-11)
(-88.3219999984 0 9.4200269857e-11)
(-88.3220000005 0 -1.28190042387e-10)
(-88.3220000001 0 1.48491477459e-10)
(-88.322 0 6.27836283432e-12)
(-88.3219999999 0 2.79441887399e-10)
(-88.3220000006 0 2.9114286533e-10)
(-88.3220000014 0 3.92781717422e-10)
(-88.3219999994 0 -3.75075304098e-11)
(-88.3219999995 0 1.46717896881e-10)
(-88.3220000005 0 4.2244920015e-10)
(-88.3220000001 0 -3.73749486712e-11)
(-88.322 0 -5.66972934665e-10)
(-88.3219999998 0 -7.89666440103e-10)
(-88.3220000002 0 2.38813628166e-10)
(-88.3219999997 0 9.31896646794e-10)
(-88.3219999999 0 -1.13662324886e-09)
(-88.3220000004 0 -2.90583612541e-10)
(-88.3219999999 0 1.41479946704e-10)
(-88.322 0 4.10513762506e-10)
(-88.322 0 -1.80003456969e-10)
(-88.322 0 2.50877841124e-10)
(-88.322 0 8.14671896444e-11)
(-88.322 0 3.43204471472e-10)
(-88.322 0 -4.79881771985e-11)
(-88.3220000002 0 6.44015135078e-10)
(-88.3219999997 0 5.16443240394e-10)
(-88.3219999996 0 -4.75338975631e-10)
(-88.3220000004 0 -1.47861851489e-10)
(-88.3220000001 0 3.29206557416e-10)
(-88.3220000008 0 1.39879973849e-11)
(-88.3219999992 0 3.75140457358e-10)
(-88.3219999983 0 -4.62808306373e-10)
(-88.3220000016 0 -8.77359639158e-11)
(-88.322000002 0 -2.52114316993e-10)
(-88.3219999991 0 2.06208179405e-10)
(-88.3219999998 0 1.12022508293e-10)
(-88.3219999998 0 -2.98796396678e-10)
(-88.3220000001 0 8.28463365035e-10)
(-88.3219999992 0 7.16139611126e-10)
(-88.3219999985 0 4.21321844559e-10)
(-88.3220000002 0 1.69595644039e-10)
(-88.3220000005 0 -3.40993358244e-11)
(-88.3220000002 0 -1.29409354977e-10)
(-88.3219999989 0 -2.4766235459e-10)
(-88.322 0 4.59476048507e-10)
(-88.3220000006 0 6.61741815342e-10)
(-88.3219999999 0 1.05494058637e-11)
(-88.3219999999 0 4.41191632366e-10)
(-88.322 0 3.22013749913e-10)
(-88.322 0 -4.67345808943e-10)
(-88.3220000001 0 2.4614243108e-11)
(-88.3219999998 0 9.84594844861e-11)
(-88.3220000003 0 -5.98477641102e-11)
(-88.3220000004 0 2.204380765e-10)
(-88.3219999998 0 2.01865120861e-10)
(-88.3219999998 0 -5.89551330617e-10)
(-88.3219999998 0 5.21037009234e-10)
(-88.3219999996 0 4.2891330821e-10)
(-88.3219999997 0 5.72390264541e-10)
(-88.3220000004 0 1.19072764222e-10)
(-88.3220000004 0 -7.66379424106e-10)
(-88.3219999999 0 -2.64310267938e-10)
(-88.3219999998 0 9.45887151442e-10)
(-88.3219999998 0 1.14038086534e-09)
(-88.3220000004 0 -6.79234246379e-10)
(-88.3219999999 0 -6.54304484102e-10)
(-88.3219999998 0 -4.87409171148e-10)
(-88.3219999998 0 -1.16678787076e-10)
(-88.321999999 0 1.22533344804e-10)
(-88.3219999997 0 -5.08647828935e-10)
(-88.3220000014 0 5.72546685812e-10)
(-88.3220000001 0 8.10465519921e-10)
(-88.321999999 0 -1.52488374986e-10)
(-88.3220000021 0 -3.72128951936e-10)
(-88.3220000008 0 1.04560388188e-10)
(-88.3219999994 0 1.93183888805e-10)
(-88.3220000002 0 1.25844452937e-10)
(-88.3219999989 0 -1.41755090083e-10)
(-88.3220000004 0 -6.78202533274e-12)
(-88.322 0 -5.88449099432e-11)
(-88.3219999999 0 4.67522161229e-12)
(-88.3220000004 0 7.15476135608e-11)
(-88.3219999995 0 5.34917823098e-11)
(-88.322 0 -2.99754445629e-11)
(-88.322 0 2.3639950067e-11)
(-88.322 0 1.29199586238e-11)
(-88.322 0 1.03615050162e-11)
(-88.322 0 8.44876423656e-12)
(-88.3220000002 0 -9.48868696916e-11)
(-88.3219999998 0 3.22157788941e-10)
(-88.3220000002 0 -2.4097681267e-10)
(-88.3220000002 0 -8.1233028119e-11)
(-88.3219999995 0 -2.50859513205e-11)
(-88.3220000002 0 1.42749178737e-10)
(-88.3220000001 0 3.06152037086e-10)
(-88.3219999998 0 -4.33954097933e-10)
(-88.3220000012 0 -5.05610200677e-10)
(-88.3220000001 0 3.0523528295e-10)
(-88.3219999994 0 3.93141558252e-10)
(-88.3220000007 0 5.51464147627e-11)
(-88.3219999981 0 4.29673796426e-10)
(-88.3219999978 0 -9.67992268459e-11)
(-88.3220000002 0 5.22224605291e-10)
(-88.3220000008 0 -2.49556030686e-10)
(-88.322000001 0 -8.09776077101e-11)
(-88.322000001 0 -2.69483011477e-10)
(-88.3220000005 0 5.24125689052e-10)
(-88.3219999989 0 2.13873022947e-11)
(-88.3219999982 0 -3.35140254685e-10)
(-88.3220000014 0 5.87867698655e-11)
(-88.3220000004 0 3.59222714721e-11)
(-88.3219999989 0 5.56360971905e-11)
(-88.3220000019 0 -1.0276943721e-10)
(-88.3220000006 0 6.20770738759e-11)
(-88.321999999 0 -1.92041125632e-10)
(-88.3220000002 0 -1.7201964577e-10)
(-88.3219999998 0 4.0758415879e-10)
(-88.3219999996 0 -3.83549984732e-10)
(-88.3220000013 0 -3.15847117829e-10)
(-88.3219999992 0 -5.99253940894e-11)
(-88.3219999983 0 -1.23013159957e-10)
(-88.3219999999 0 2.05685839519e-11)
(-88.3220000009 0 -2.91473044782e-10)
(-88.3220000022 0 -1.45315546204e-10)
(-88.322 0 4.68799917704e-11)
(-88.3219999982 0 -4.57851829817e-12)
(-88.3219999984 0 -3.02462310618e-12)
(-88.3220000012 0 -4.17917138059e-11)
(-88.322000002 0 3.14951878803e-12)
(-88.322 0 -4.49251233418e-11)
(-88.321999999 0 -7.8207763473e-11)
(-88.3219999989 0 5.0396832506e-11)
(-88.3220000007 0 -3.63183303434e-10)
(-88.3219999996 0 -3.75493695824e-10)
(-88.3219999988 0 -6.25836880685e-10)
(-88.3220000009 0 3.514278333e-10)
(-88.3220000019 0 -4.85650384468e-10)
(-88.322 0 -3.873329027e-10)
(-88.3219999989 0 8.57809903541e-10)
(-88.3219999999 0 2.13992166789e-10)
(-88.3220000005 0 -1.19698399529e-10)
(-88.3220000005 0 -5.03711142153e-10)
(-88.3219999996 0 -1.46516896033e-10)
(-88.3219999999 0 6.51698946485e-10)
(-88.3220000001 0 -2.11214480675e-10)
(-88.3219999999 0 -7.44208788368e-11)
(-88.3220000001 0 6.16728163472e-11)
(-88.322 0 9.90157037471e-11)
(-88.3219999999 0 -2.29608351416e-10)
(-88.322 0 7.47054835625e-11)
(-88.322 0 4.38793841549e-11)
(-88.3220000001 0 1.35633344143e-11)
(-88.3219999995 0 -8.96620525417e-12)
(-88.322 0 -5.03905274822e-11)
(-88.3220000005 0 3.39415671909e-11)
(-88.3219999999 0 -4.75263759663e-11)
(-88.3219999997 0 1.37964194459e-10)
(-88.3220000002 0 -5.25338517307e-11)
(-88.3220000004 0 6.27389689738e-11)
(-88.3219999998 0 -6.63310832636e-11)
(-88.3220000001 0 4.99655512695e-11)
(-88.3220000002 0 3.19293423358e-10)
(-88.3219999997 0 -1.23570984189e-12)
(-88.3219999998 0 1.0576289878e-10)
(-88.3220000002 0 4.90891526443e-10)
(-88.3219999999 0 -5.42130592196e-10)
(-88.3219999996 0 -5.28535268304e-10)
(-88.3219999997 0 2.98846046846e-11)
(-88.3220000002 0 2.81424891174e-10)
(-88.3220000006 0 -1.01893520141e-10)
(-88.322 0 1.04231894655e-10)
(-88.3220000006 0 2.39173437004e-10)
(-88.3219999998 0 -4.27213452382e-10)
(-88.3219999998 0 -6.92448252539e-10)
(-88.3219999999 0 1.85050121795e-10)
(-88.3220000002 0 -4.45154237816e-10)
(-88.3219999999 0 -3.60326111843e-10)
(-88.3220000001 0 4.62835406957e-10)
(-88.3220000005 0 -4.57453402414e-11)
(-88.3219999985 0 -1.23236758192e-10)
(-88.3220000008 0 9.44943487265e-11)
(-88.322000002 0 -2.02906143912e-10)
(-88.3219999992 0 -1.02744559527e-10)
(-88.3219999993 0 4.09896489606e-10)
(-88.3219999996 0 -5.19358065456e-10)
(-88.322 0 -3.65689912955e-10)
(-88.322 0 -5.56610450403e-10)
(-88.3219999998 0 2.24371779919e-11)
(-88.3220000002 0 4.93984613447e-10)
(-88.322 0 2.33073519976e-11)
(-88.3219999999 0 -3.95828543937e-10)
(-88.3219999998 0 -7.62511451408e-10)
(-88.3220000004 0 2.29050142422e-10)
(-88.322 0 1.90225112537e-10)
(-88.3219999996 0 2.68711105895e-10)
(-88.3220000004 0 -2.7423623025e-10)
(-88.3219999998 0 -3.1419224337e-10)
(-88.3220000002 0 8.14526712563e-11)
(-88.322 0 -5.37288982865e-10)
(-88.322 0 -5.17134134066e-10)
(-88.3220000003 0 -9.0879222563e-11)
(-88.3219999994 0 4.26582763232e-10)
(-88.3219999997 0 -8.97038501056e-11)
(-88.3220000014 0 -1.07347568495e-10)
(-88.3220000017 0 -1.22801997602e-10)
(-88.3219999989 0 -5.63010458542e-11)
(-88.321999998 0 2.50058446704e-10)
(-88.3220000002 0 -6.14374069339e-11)
(-88.3220000014 0 1.07971719736e-10)
(-88.3219999999 0 -3.91300945336e-11)
(-88.3219999992 0 -2.79739208218e-11)
(-88.3220000006 0 4.98015599618e-11)
(-88.322 0 -1.54264600292e-11)
(-88.3219999994 0 -1.38614540054e-11)
(-88.3220000002 0 -5.26498330405e-11)
(-88.3220000001 0 -2.29623102407e-11)
(-88.3220000003 0 5.22999161275e-11)
(-88.3219999997 0 -2.11841916867e-10)
(-88.3220000002 0 6.74304513315e-11)
(-88.322 0 1.37859553008e-10)
(-88.3219999994 0 -1.85174229902e-10)
(-88.3220000003 0 -2.34209813933e-10)
(-88.3220000001 0 1.43974655088e-10)
(-88.3219999998 0 6.40104803452e-10)
(-88.3220000006 0 6.20135999478e-10)
(-88.3220000003 0 -2.74563433853e-10)
(-88.3219999999 0 -3.95979248278e-10)
(-88.3219999998 0 -2.73608849386e-10)
(-88.3219999995 0 -4.85916747091e-10)
(-88.3219999998 0 1.82228693738e-10)
(-88.3219999991 0 -4.61917950401e-10)
(-88.3219999992 0 3.58268296143e-10)
(-88.3220000013 0 -2.07978219564e-10)
(-88.3220000005 0 1.61983288935e-10)
(-88.3220000003 0 -3.25629935698e-10)
(-88.322 0 3.73616152221e-11)
(-88.322 0 -5.50061825367e-11)
(-88.322 0 8.26071199028e-12)
(-88.322 0 -8.12044671811e-11)
(-88.322 0 9.71482231334e-11)
(-88.322 0 4.86371481601e-11)
(-88.322 0 -1.03383473144e-10)
(-88.3220000001 0 1.88547046383e-10)
(-88.322 0 1.64854887799e-10)
(-88.322 0 -4.91222533554e-10)
(-88.322 0 5.794439157e-10)
(-88.322 0 5.41877573374e-10)
(-88.3220000001 0 6.31590274996e-11)
(-88.322 0 1.22693071632e-10)
(-88.322 0 -5.03902180038e-11)
(-88.322 0 9.92708919297e-11)
(-88.322 0 -1.13830729851e-11)
(-88.322 0 -2.34404751581e-12)
(-88.322 0 2.00612366932e-11)
(-88.322 0 -2.9258970036e-11)
(-88.322 0 1.50703149681e-11)
(-88.322 0 -2.38336949668e-11)
(-88.322 0 2.01327034835e-10)
(-88.322 0 -8.30804327175e-11)
(-88.322 0 -4.71491813831e-11)
(-88.322 0 1.06632678434e-10)
(-88.322 0 -2.37353249479e-11)
(-88.322 0 5.44554382872e-11)
(-88.322 0 -2.33844835515e-10)
(-88.322 0 5.5372066148e-11)
(-88.322 0 -1.15253001945e-10)
(-88.322 0 -7.80745232627e-12)
(-88.322 0 1.87803084636e-10)
(-88.3220000004 0 -2.07180202119e-10)
(-88.3219999999 0 1.83556493885e-10)
(-88.3219999996 0 -2.22341723938e-10)
(-88.3220000001 0 -7.57822957225e-10)
(-88.322 0 1.95245692065e-10)
(-88.322 0 3.3696743394e-10)
(-88.322 0 -4.60144058369e-11)
(-88.322 0 -9.6846110621e-11)
(-88.322 0 2.34280261354e-10)
(-88.322 0 -1.08424958229e-10)
(-88.322 0 -3.93709005775e-11)
(-88.322 0 -3.38437454636e-11)
(-88.322 0 -7.31226111563e-11)
(-88.322 0 1.69699236048e-10)
(-88.3219999998 0 -1.00679902463e-11)
(-88.3220000004 0 2.3046190975e-10)
(-88.3220000004 0 -6.28541155668e-11)
(-88.3219999995 0 -8.79677480369e-11)
(-88.3219999986 0 -1.99409937928e-10)
(-88.3219999989 0 7.43550934458e-11)
(-88.3220000019 0 1.41485463211e-10)
(-88.3220000023 0 -2.39245716456e-10)
(-88.3219999996 0 -1.12606289109e-10)
(-88.322 0 -2.57925597984e-11)
(-88.3219999992 0 -1.32347366715e-10)
(-88.3219999998 0 6.97430553091e-11)
(-88.3219999993 0 6.24097497618e-11)
(-88.3219999992 0 -1.05891608246e-09)
(-88.3220000006 0 -9.44614742951e-10)
(-88.322 0 -2.44246678759e-10)
(-88.3219999996 0 1.70868335123e-10)
(-88.3220000001 0 1.26175239207e-10)
(-88.3219999999 0 -1.87146506564e-10)
(-88.3219999999 0 -6.26601959326e-11)
(-88.3219999997 0 9.05663484057e-11)
(-88.3219999999 0 6.64699614625e-11)
(-88.3220000003 0 -1.5465042254e-10)
(-88.3219999999 0 -1.77676860876e-10)
(-88.322 0 -3.20520945995e-11)
(-88.322 0 -9.00464397468e-11)
(-88.322 0 2.2028145236e-11)
(-88.3219999999 0 -3.737593921e-11)
(-88.3220000002 0 -1.92904468623e-11)
(-88.3220000001 0 -2.2466069109e-11)
(-88.3219999998 0 -3.59696953525e-11)
(-88.322 0 -4.65971366467e-11)
(-88.322 0 -4.58113131634e-11)
(-88.322 0 -3.33191799489e-12)
(-88.322 0 5.64690905917e-11)
(-88.322 0 -1.734055939e-10)
(-88.3219999998 0 -7.557718266e-11)
(-88.3219999998 0 5.5710074727e-10)
(-88.322 0 3.8249479869e-10)
(-88.3220000001 0 -4.88245603062e-10)
(-88.3220000001 0 -3.59224932635e-10)
(-88.322 0 -1.03187705014e-10)
(-88.3219999998 0 7.87438920401e-11)
(-88.3220000002 0 -1.9113817862e-10)
(-88.3220000004 0 1.48298760641e-10)
(-88.322 0 -1.5652137667e-10)
(-88.3220000002 0 -4.12759883755e-10)
(-88.3219999996 0 -3.34454099544e-10)
(-88.321999999 0 3.11512829509e-10)
(-88.3220000017 0 -4.50009095904e-10)
(-88.3220000017 0 -4.83728294499e-10)
(-88.321999999 0 -4.25397233589e-10)
(-88.3219999998 0 4.67782070628e-10)
(-88.3219999993 0 3.39868321179e-10)
(-88.3219999991 0 -3.8530100434e-10)
(-88.3220000003 0 -2.42903946692e-10)
(-88.322 0 5.57997114031e-10)
(-88.322 0 1.32443495297e-10)
(-88.322 0 -3.85143246449e-10)
(-88.322 0 -6.00874501319e-10)
(-88.322 0 2.4062322991e-10)
(-88.3220000002 0 -2.43692272538e-10)
(-88.3219999998 0 -1.06793801067e-10)
(-88.3219999996 0 -5.25956076724e-10)
(-88.322 0 4.22727581434e-10)
(-88.3220000002 0 -1.472770265e-10)
(-88.322 0 7.29136526006e-11)
(-88.3220000007 0 3.40601178398e-10)
(-88.3219999998 0 -4.42216372559e-10)
(-88.3219999992 0 -1.02538358359e-09)
(-88.3220000011 0 -1.23098895363e-09)
(-88.3220000008 0 -4.63573169628e-10)
(-88.3219999995 0 1.07230022047e-09)
(-88.3219999998 0 6.12839757198e-10)
(-88.3219999992 0 -7.79003368514e-11)
(-88.3219999994 0 -7.67111251172e-10)
(-88.3220000014 0 8.08059531925e-10)
(-88.3220000012 0 -4.35376553888e-11)
(-88.3219999996 0 -1.93620144095e-10)
(-88.3219999994 0 -4.36772304803e-11)
(-88.322 0 1.10145153201e-10)
(-88.3220000008 0 4.73865954905e-11)
(-88.3220000004 0 2.99607231931e-10)
(-88.3219999995 0 -2.4311145308e-10)
(-88.3219999998 0 2.13422001991e-10)
(-88.3220000006 0 -2.80183850097e-10)
(-88.3220000004 0 2.66227657952e-10)
(-88.3219999997 0 3.02392608335e-10)
(-88.322 0 -2.48440903118e-10)
(-88.3219999998 0 -4.35130835897e-10)
(-88.322 0 -1.28820438902e-10)
(-88.3220000001 0 -4.87970394005e-10)
(-88.322 0 -4.57006307854e-10)
(-88.322 0 -1.27217952487e-10)
(-88.322 0 7.30377165766e-11)
(-88.322 0 4.85190683437e-11)
(-88.3219999999 0 1.18167152439e-10)
(-88.3219999999 0 -3.86226896513e-10)
(-88.3220000004 0 -7.70320293699e-10)
(-88.3220000002 0 3.49291664411e-10)
(-88.3219999985 0 3.36798850326e-10)
(-88.3219999991 0 8.03646561642e-10)
(-88.3220000022 0 -5.10680166248e-10)
(-88.3220000014 0 -5.05315608614e-10)
(-88.3219999992 0 3.27290910795e-10)
(-88.3219999992 0 3.11907297959e-10)
(-88.3220000001 0 3.08950450729e-10)
(-88.3219999999 0 1.02225136492e-10)
(-88.322 0 3.61154798799e-10)
(-88.3220000011 0 1.04154181018e-10)
(-88.3220000003 0 5.34493078265e-11)
(-88.3219999985 0 9.89031949194e-11)
(-88.3220000002 0 -1.50465536469e-10)
(-88.3220000015 0 -4.02757906421e-10)
(-88.3220000004 0 5.72623314612e-10)
(-88.3219999979 0 8.60751908045e-10)
(-88.3219999981 0 5.56274149506e-10)
(-88.3220000017 0 7.79313396673e-10)
(-88.3220000011 0 -5.66932497716e-10)
(-88.3219999982 0 -5.6589622806e-11)
(-88.3219999992 0 4.44888864979e-11)
(-88.3220000019 0 -7.64942097658e-11)
(-88.3220000014 0 6.49098744432e-11)
(-88.3219999987 0 -1.15869708766e-10)
(-88.3219999993 0 5.60408126794e-11)
(-88.3220000006 0 -1.2735856655e-10)
(-88.3220000006 0 -3.21094775603e-10)
(-88.3219999988 0 2.58032588046e-10)
(-88.321999999 0 3.65080202379e-10)
(-88.3220000011 0 4.88637461599e-10)
(-88.3219999994 0 -3.55438201749e-10)
(-88.3220000005 0 -3.57854305899e-10)
(-88.3220000012 0 7.98664708417e-10)
(-88.3220000004 0 1.30540914331e-10)
(-88.3220000009 0 1.22171195445e-10)
(-88.3219999978 0 3.63171018392e-10)
(-88.3219999975 0 5.73413022238e-10)
(-88.3220000022 0 7.03718748853e-10)
(-88.3220000018 0 -2.63952109621e-10)
(-88.321999998 0 -4.53544837699e-10)
(-88.3219999978 0 -1.96334691899e-10)
(-88.3220000012 0 4.632725266e-10)
(-88.3220000006 0 4.4579188228e-10)
(-88.3219999993 0 3.11655738699e-10)
(-88.322 0 -2.19492651617e-10)
(-88.3219999998 0 -2.3009343448e-10)
(-88.3220000004 0 1.54178996989e-10)
(-88.322 0 -2.64783905004e-11)
(-88.3219999998 0 -8.22166469154e-11)
(-88.3219999998 0 -1.35370270988e-10)
(-88.3219999991 0 1.57180191663e-10)
(-88.3220000009 0 1.2727554973e-10)
(-88.3220000015 0 4.63733131508e-11)
(-88.3219999997 0 -4.29442237191e-11)
(-88.322 0 -3.82122800597e-10)
(-88.3220000005 0 -2.24173216884e-11)
(-88.3219999995 0 -9.99085729966e-11)
(-88.321999999 0 -1.24531560353e-10)
(-88.3219999995 0 8.98392359686e-11)
(-88.3219999999 0 -1.31841506722e-10)
(-88.3220000008 0 -1.1887029154e-11)
(-88.3220000018 0 -4.80647011803e-12)
(-88.3219999987 0 -7.16136559239e-11)
(-88.3219999978 0 2.02764715077e-10)
(-88.3219999989 0 -3.76591838868e-12)
(-88.3220000016 0 -3.83597551354e-10)
(-88.3220000027 0 -2.43936250619e-10)
(-88.3219999985 0 3.39963008978e-10)
(-88.3219999984 0 4.95638153834e-10)
(-88.322 0 1.01094868096e-10)
(-88.3220000001 0 -4.73564296682e-11)
(-88.3220000001 0 1.95146466535e-10)
(-88.3220000004 0 -1.04728442713e-10)
(-88.3220000006 0 1.69069405797e-10)
(-88.3220000001 0 4.1872688642e-10)
(-88.322 0 3.30937846807e-10)
(-88.3219999999 0 -2.99830589185e-10)
(-88.3220000004 0 5.54530767966e-10)
(-88.3219999993 0 2.64937631583e-10)
(-88.3219999989 0 6.69627811211e-10)
(-88.3220000001 0 -5.22991527911e-10)
(-88.3220000016 0 -3.43261339386e-10)
(-88.3220000007 0 5.36264394635e-10)
(-88.3219999992 0 1.95512034176e-10)
(-88.322 0 -5.7267952951e-10)
(-88.3220000001 0 -1.26161923447e-10)
(-88.3220000002 0 3.66394624947e-10)
(-88.322 0 6.29626803462e-10)
(-88.322 0 -4.25339461711e-10)
(-88.3220000009 0 2.4188533189e-10)
(-88.3219999991 0 7.70017671144e-11)
(-88.3219999982 0 5.39755364977e-10)
(-88.3219999996 0 -4.51155219126e-10)
(-88.3220000017 0 2.83577013964e-11)
(-88.3220000017 0 1.70846637355e-10)
(-88.3219999983 0 -6.211767776e-10)
(-88.3219999989 0 1.19297891781e-10)
(-88.3220000005 0 8.21070092555e-10)
(-88.3220000006 0 7.87202372156e-10)
(-88.322 0 5.02721829104e-10)
(-88.3219999989 0 -4.4453457152e-10)
(-88.3220000014 0 -6.26594917634e-10)
(-88.3220000014 0 5.29038005097e-10)
(-88.3219999994 0 5.32402550909e-10)
(-88.3219999996 0 -4.36566374634e-10)
(-88.322 0 -5.42039514728e-10)
(-88.3219999999 0 1.41745500485e-10)
(-88.322 0 -1.7895919639e-10)
(-88.322 0 -4.53671438225e-11)
(-88.322 0 1.39761138732e-10)
(-88.322 0 -2.49523289766e-10)
(-88.322 0 1.81528978378e-10)
(-88.322 0 -1.39094488825e-10)
(-88.322 0 1.50329134192e-10)
(-88.322 0 -2.47286688297e-10)
(-88.322 0 -1.57969561587e-10)
(-88.3220000002 0 -2.35531222208e-10)
(-88.3220000006 0 1.72437532866e-11)
(-88.3219999999 0 3.90485086446e-10)
(-88.3219999995 0 1.87095888817e-10)
(-88.3220000002 0 -1.49572778533e-10)
(-88.3219999997 0 -3.08617829135e-10)
(-88.322 0 1.63793613904e-10)
(-88.3220000002 0 2.15724033172e-10)
(-88.3219999997 0 -2.69920732978e-10)
(-88.322 0 4.39009323805e-10)
(-88.322 0 7.67331165297e-10)
(-88.3220000001 0 -3.25427684404e-10)
(-88.3219999997 0 -3.462665745e-10)
(-88.3219999996 0 -8.31730594222e-10)
(-88.3220000006 0 4.18044269721e-10)
(-88.322 0 4.60867873717e-10)
(-88.3219999998 0 -3.55140307421e-10)
(-88.3220000002 0 -3.19632343953e-10)
(-88.3219999999 0 -3.65042696583e-10)
(-88.322 0 -2.38022968294e-10)
(-88.322 0 -2.42100226528e-10)
(-88.322 0 -1.21351114044e-10)
(-88.322 0 1.28867237803e-10)
(-88.322 0 1.34906223896e-10)
(-88.3219999997 0 -1.57782583435e-10)
(-88.3220000003 0 3.91152162509e-10)
(-88.3220000003 0 -3.18227177294e-10)
(-88.3219999995 0 -7.72708000078e-10)
(-88.322 0 -6.03343854394e-10)
(-88.3219999997 0 -1.60941838233e-10)
(-88.3220000002 0 -3.48316261988e-11)
(-88.3220000005 0 -4.91218686009e-10)
(-88.3219999998 0 2.38521744439e-10)
(-88.322 0 3.83643192417e-10)
(-88.322 0 -3.87661769808e-10)
(-88.3220000004 0 7.79082480767e-11)
(-88.3220000002 0 -5.40160070876e-10)
(-88.3219999996 0 -4.72120289678e-10)
(-88.322 0 1.64523630488e-10)
(-88.3219999999 0 -8.5377427877e-10)
(-88.322 0 -5.22770241311e-10)
(-88.3219999999 0 -5.21730937469e-10)
(-88.3220000008 0 2.32439381679e-10)
(-88.3220000007 0 2.96844744041e-10)
(-88.3219999984 0 -6.17007682458e-10)
(-88.321999999 0 -1.40952650552e-10)
(-88.3220000015 0 -5.20250512219e-10)