/*--------------------------------*- C++ -*----------------------------------*\
  =========                 |
  \\      /  F ield         | OpenFOAM: The Open Source CFD Toolbox
   \\    /   O peration     | Website:  https://openfoam.org
    \\  /    A nd           | Version:  6
     \\/     M anipulation  |
\*---------------------------------------------------------------------------*/
FoamFile
{
    version     2.0;
    format      ascii;
    class       volScalarField;
    location    "3.2e-05";
    object      p;
}
// * * * * * * * * * * * * * * * * * * * * * * * * * * * * * * * * * * * * * //

dimensions      [1 -1 -2 0 0 0 0];

internalField   nonuniform List<scalar> 
8192
(
6000000.00198
5999999.99982
6000000.00058
6000000.00045
6000000.00116
5999999.99933
6000000
5999999.99997
6000000.00001
6000000.00001
6000000
6000000.00004
6000000.00036
6000000.00018
6000000.00011
6000000.00007
6000000.00004
5999999.99987
5999999.99981
6000000.0001
5999999.99995
5999999.99987
5999999.99988
6000000.00001
5999999.99988
6000000.00001
5999999.99959
5999999.99959
5999999.99911
6000000.00021
5999999.99928
5999999.99959
5999999.99923
5999999.99751
6000000.00333
6000000.00426
5999999.99967
6000000.00465
5999999.99767
5999999.99928
5999999.99991
5999999.99992
6000000.00002
6000000.00003
6000000.0002
6000000.0001
6000000.00001
6000000.00003
5999999.99992
6000000
6000000.00015
5999999.99937
6000000.00113
5999999.99821
5999999.99888
6000000.00259
6000000.00106
6000000.00122
6000000.00001
6000000.00193
5999999.99793
5999999.99704
5999999.99769
5999999.99898
6000000.00003
6000000.00012
6000000.00003
6000000.00048
5999999.99987
6000000.00013
5999999.99998
5999999.99994
6000000.00079
6000000.00339
6000000.00368
5999999.99698
5999999.99357
6000000.00387
6000000.00381
5999999.99704
5999999.99905
5999999.99647
6000000.00299
6000000.00295
5999999.99811
5999999.99805
6000000.00323
6000000.00391
5999999.9989
5999999.99922
5999999.99925
5999999.9995
5999999.99931
6000000.00032
5999999.99979
6000000.00006
6000000.00013
5999999.99999
6000000.00037
5999999.99997
6000000.00002
5999999.99998
5999999.99995
6000000.00001
5999999.9998
6000000.00007
6000000.00007
6000000.00001
5999999.99998
5999999.99998
6000000.00002
6000000.00001
5999999.99998
6000000.00017
6000000.00001
6000000.0002
6000000.00003
5999999.9998
5999999.99999
6000000.00001
5999999.9997
5999999.99968
6000000.00002
5999999.99989
6000000.00007
6000000.00004
6000000.00007
6000000.00007
6000000.00347
6000000.00015
6000000.0001
6000000.00034
6000000.00029
5999999.99991
6000000.00002
5999999.99997
6000000.00008
6000000.00012
6000000.00001
6000000.00048
6000000.00044
6000000.00117
6000000.0018
5999999.99839
5999999.99998
5999999.99842
6000000.00163
6000000.00158
5999999.99988
5999999.99801
5999999.99898
6000000.00058
5999999.99688
6000000.00306
5999999.99701
5999999.99749
5999999.99932
5999999.99951
5999999.999
5999999.99977
6000000.00001
5999999.99994
6000000.00041
6000000.0005
5999999.99982
6000000.00144
6000000.00008
6000000.00007
5999999.99977
5999999.99994
6000000.00004
6000000.00033
6000000.00377
6000000.00214
6000000.002
6000000.00115
6000000.00235
6000000.00119
5999999.9972
5999999.99994
6000000.00099
5999999.99863
6000000.00111
5999999.99834
6000000.00136
6000000.00236
6000000.003
5999999.99637
5999999.99597
6000000.00314
6000000.00386
6000000.00155
5999999.99994
5999999.99998
6000000.00013
6000000.00002
5999999.99993
6000000.00001
5999999.99999
6000000.00001
6000000.00013
6000000.00001
6000000.00001
5999999.9999
5999999.99974
6000000.00014
6000000.00002
6000000.00001
6000000.00002
5999999.99998
6000000.00004
6000000.00007
6000000
5999999.99983
5999999.99998
6000000.00003
5999999.9999
6000000
5999999.99992
6000000.00008
5999999.99873
6000000.00072
5999999.99889
6000000.00023
6000000.00337
5999999.99706
5999999.9978
6000000.00149
6000000.00405
5999999.99496
5999999.99702
6000000.00276
6000000.00243
5999999.99891
6000000.00177
6000000.00032
6000000.00207
5999999.99922
6000000.00296
6000000.00437
5999999.9964
6000000.00042
6000000.00167
5999999.99923
6000000.0038
5999999.99651
6000000.00062
6000000.00266
6000000.00188
6000000.00194
6000000.00123
6000000.00085
6000000.00144
5999999.99917
5999999.9998
5999999.99992
5999999.99899
5999999.99926
5999999.99993
5999999.99978
6000000.00031
5999999.99991
6000000.00002
5999999.99983
6000000.00002
5999999.99993
6000000.00004
6000000.00012
6000000.00013
5999999.99993
6000000.00003
6000000.00007
6000000
6000000.00008
5999999.99955
5999999.99792
6000000.00311
6000000.00248
5999999.99636
5999999.99787
5999999.99807
5999999.99798
5999999.99915
5999999.99771
6000000.00047
6000000.00037
5999999.99946
6000000.00033
6000000.00013
6000000.00016
6000000.00001
5999999.99995
6000000.00007
6000000.00006
6000000
5999999.99986
6000000.00001
6000000.00011
6000000.00001
6000000.00001
6000000.00002
6000000.00001
5999999.99989
6000000.00019
5999999.99942
5999999.99915
6000000.00016
5999999.99854
6000000.00196
5999999.99644
5999999.99706
6000000.00226
6000000.00158
5999999.9995
6000000.00223
5999999.99914
6000000.00236
5999999.99615
5999999.99848
5999999.99795
6000000.00303
6000000.00012
5999999.99968
5999999.99998
6000000.00002
6000000.00019
6000000.00003
5999999.99982
6000000.00003
6000000.00001
5999999.99995
6000000.00029
6000000.00026
6000000.00014
6000000.0001
5999999.99998
5999999.99981
5999999.99941
5999999.99994
6000000.00004
5999999.99994
5999999.99989
5999999.99981
6000000.0004
5999999.99954
6000000.00036
5999999.99851
5999999.99757
5999999.99703
6000000.00122
5999999.99687
5999999.99798
6000000.00338
6000000.0006
6000000.00209
6000000.00147
5999999.99839
6000000.0018
5999999.99959
6000000.00076
6000000.00042
6000000.00003
6000000.00022
6000000.00001
6000000.0002
6000000.00004
6000000.0001
6000000.00026
5999999.99992
6000000.00039
6000000.00052
5999999.99939
6000000.00084
5999999.99915
6000000.00027
6000000.00314
6000000.00137
6000000.00025
6000000.00353
5999999.99563
5999999.99772
5999999.9967
5999999.99928
5999999.99939
5999999.99939
6000000.00101
5999999.99772
5999999.9959
6000000.00215
5999999.99556
5999999.99763
6000000.00254
6000000.00056
5999999.99921
6000000.00036
5999999.99961
5999999.99919
6000000.00248
5999999.99647
5999999.99711
5999999.99752
5999999.99932
6000000.00266
6000000.00033
5999999.99666
5999999.99607
6000000.00088
6000000.0015
6000000.00075
5999999.99864
5999999.99853
6000000.00054
5999999.9972
5999999.99799
5999999.99893
6000000.00326
5999999.99955
5999999.99965
5999999.9991
5999999.99993
6000000.00018
5999999.99997
6000000.00004
5999999.9998
5999999.99993
6000000.0002
5999999.99998
5999999.99998
6000000.00001
6000000.00001
6000000.0001
5999999.99956
6000000
5999999.99998
5999999.99998
5999999.99984
5999999.9999
6000000.00001
5999999.99983
6000000.00002
6000000.00008
5999999.9999
5999999.99995
6000000.00002
6000000.00004
5999999.99962
5999999.9994
5999999.99989
5999999.99971
6000000.00005
6000000.00012
6000000.00001
6000000
6000000.00001
6000000.00027
5999999.99951
6000000.00095
6000000.00153
5999999.99562
6000000.00371
6000000.00327
6000000.00047
6000000.00098
6000000.0006
6000000.00019
6000000.00001
6000000
6000000.00003
6000000.00001
6000000
5999999.99985
5999999.99989
6000000.00004
5999999.99996
6000000.00002
5999999.99962
5999999.99992
6000000.00014
5999999.99975
6000000.00073
5999999.99767
5999999.99895
6000000.00332
6000000.00329
6000000.00032
5999999.99796
6000000.00022
6000000.00247
5999999.99987
5999999.99989
6000000.00047
5999999.99998
6000000.00002
6000000.00001
6000000.0001
6000000.00024
5999999.99986
6000000.00031
5999999.99997
5999999.99992
6000000.00022
6000000.00001
6000000.00025
6000000.00064
6000000.00094
6000000.00031
6000000.0006
5999999.99952
5999999.99966
5999999.99562
5999999.99766
6000000.00081
5999999.99938
5999999.99939
5999999.99981
5999999.9997
6000000.00002
5999999.99993
6000000.00003
5999999.99983
6000000.00001
6000000
6000000.00001
6000000.00006
5999999.99977
6000000.00012
5999999.99999
5999999.99992
5999999.99989
5999999.9999
6000000.00002
6000000.00004
5999999.99993
5999999.99989
5999999.99988
6000000.00001
5999999.99988
5999999.99993
5999999.99988
5999999.99993
6000000.00001
6000000.00001
5999999.99988
5999999.99998
6000000
6000000.00001
5999999.99988
6000000.0003
5999999.99951
6000000.00002
5999999.9999
6000000.00001
6000000.00001
5999999.99998
6000000.00001
6000000.00004
6000000.0002
6000000.0001
6000000.00001
6000000.00001
5999999.99992
5999999.99985
6000000.00025
5999999.99967
5999999.99994
5999999.99781
5999999.99661
6000000.0024
6000000.00188
5999999.99976
6000000.0038
5999999.99881
6000000.003
5999999.99645
6000000.00011
5999999.99922
6000000.00105
6000000.00068
6000000.00064
6000000.00002
6000000.00046
5999999.9998
6000000.00005
6000000.00001
6000000.00003
6000000.00012
6000000.00001
6000000.00002
5999999.99994
6000000.00017
6000000.00003
6000000
6000000.00001
5999999.99993
5999999.99994
6000000.00002
5999999.99998
5999999.99984
5999999.99984
5999999.99988
5999999.99988
5999999.99994
5999999.99988
5999999.99986
5999999.99982
6000000.00042
5999999.99944
6000000.00039
5999999.99944
5999999.99736
6000000.003
6000000.00294
6000000.00084
6000000.00379
5999999.99861
5999999.99991
6000000.00005
6000000.00004
6000000.00003
6000000.00002
6000000.00022
6000000.00005
6000000.00032
6000000.00016
5999999.99985
6000000.00002
6000000.00006
5999999.99963
6000000.00111
5999999.99863
5999999.99934
6000000.00299
6000000.00214
6000000.00203
6000000.00055
5999999.99911
5999999.9985
6000000.00386
6000000.00226
6000000.00188
5999999.9989
5999999.99815
6000000.00072
5999999.99967
5999999.99985
5999999.99983
6000000.00017
6000000.00017
6000000.00013
6000000.00013
5999999.99988
6000000.00012
5999999.99991
6000000.00013
6000000.00022
6000000.00006
6000000.00002
5999999.99997
5999999.99945
6000000.00091
6000000.00043
5999999.99733
5999999.99738
6000000.00342
6000000.00251
6000000.00078
5999999.9996
6000000.00099
5999999.99948
6000000.00074
6000000.00351
6000000.00221
5999999.9989
6000000.00256
6000000.00241
6000000.0032
5999999.99524
5999999.99806
6000000.0021
6000000.00148
5999999.99615
5999999.99898
6000000.00141
6000000.00359
5999999.99796
6000000.00257
5999999.99957
6000000.00446
5999999.99569
6000000.00049
6000000.00022
5999999.99847
6000000.0022
6000000.00153
6000000.00162
6000000.00497
5999999.99609
5999999.99792
6000000.0038
6000000.00256
5999999.9983
5999999.99606
6000000.00114
5999999.99898
6000000.00003
5999999.99999
5999999.99976
6000000.00112
5999999.99951
6000000.00091
5999999.99936
5999999.99904
6000000.00104
6000000.00248
6000000.0006
6000000.00245
6000000.00274
6000000.00188
5999999.99882
5999999.99962
5999999.99932
6000000.0019
6000000.00447
5999999.99823
5999999.99804
5999999.99541
6000000.00307
6000000.00159
5999999.99765
5999999.99825
5999999.99818
5999999.99896
5999999.99885
5999999.99924
5999999.99976
6000000.00007
5999999.99998
5999999.99989
6000000.00026
5999999.99852
5999999.99828
5999999.99859
6000000.0016
5999999.99975
6000000.00001
6000000.00007
5999999.99964
6000000.00028
6000000.00009
6000000.00062
6000000.00202
5999999.99837
5999999.99832
5999999.99749
6000000.00339
6000000.00338
5999999.99705
5999999.99929
5999999.99876
6000000.00036
5999999.99748
5999999.99801
6000000.00211
6000000.00073
6000000.00101
6000000.00049
5999999.99997
6000000.00007
6000000.00004
6000000.00004
6000000.00001
5999999.99998
5999999.99993
5999999.99993
6000000.00013
6000000.00001
5999999.99999
6000000.00012
6000000.00045
6000000.00013
6000000.00013
6000000.00015
6000000.00014
6000000.00037
6000000.0001
5999999.99988
5999999.99994
6000000.0001
6000000.00009
5999999.99978
5999999.99927
6000000.0004
5999999.99957
6000000
5999999.99988
5999999.99993
5999999.99989
6000000.00001
5999999.99988
6000000.00002
5999999.99994
5999999.9998
6000000.00034
6000000.00018
5999999.99966
5999999.99975
5999999.9986
5999999.99968
6000000.00004
6000000.00004
6000000.00001
5999999.99999
6000000.00021
6000000.00006
5999999.99998
6000000.00004
5999999.99992
6000000.00005
5999999.99942
6000000.00139
6000000.00172
5999999.99738
5999999.99801
6000000.00316
5999999.99906
6000000.00034
6000000.00046
6000000.00004
6000000
5999999.99986
6000000.00002
5999999.99988
5999999.99999
5999999.99976
6000000.00012
6000000
6000000
5999999.99997
6000000.0001
5999999.99945
6000000.00205
6000000.00389
5999999.99933
6000000.00173
6000000.00305
6000000.00368
5999999.99853
5999999.99936
6000000.00027
5999999.99998
6000000.00001
6000000.00007
5999999.99994
5999999.99993
5999999.99998
6000000.00001
5999999.99992
5999999.99994
5999999.99992
5999999.99998
5999999.99994
6000000.00007
5999999.9998
5999999.99895
6000000.0013
5999999.99773
6000000.00241
6000000.00125
6000000.0012
5999999.99844
6000000.00243
6000000.00253
5999999.99816
5999999.99789
6000000.00283
6000000.00001
6000000.00345
6000000.00365
6000000.00189
6000000.00296
6000000.00004
6000000.00018
6000000.00125
5999999.99999
6000000.00101
5999999.99938
6000000.00198
5999999.99701
6000000.00052
6000000.00285
6000000.00298
6000000.00025
5999999.99962
6000000.00002
6000000.00001
6000000.00001
5999999.99949
6000000.0025
6000000.00034
6000000.00014
6000000.00017
6000000.00001
6000000.00001
6000000.00048
5999999.99932
6000000.00135
5999999.99549
6000000.00353
6000000.00288
5999999.99959
6000000.00034
6000000.00037
6000000.00015
6000000.00006
6000000
6000000.00001
6000000
6000000
5999999.99989
6000000.00001
5999999.99988
6000000
6000000.00001
5999999.99989
6000000.00015
5999999.99999
5999999.99988
6000000.00001
5999999.99998
5999999.9999
6000000.00003
6000000.00002
6000000.00005
5999999.99981
5999999.99876
5999999.99958
6000000.00004
5999999.99992
6000000.00004
6000000.00001
6000000.00022
6000000.00007
6000000.00001
6000000.00001
5999999.99994
5999999.99982
6000000.00024
5999999.99838
6000000.00252
5999999.99677
5999999.99781
6000000.00299
6000000.00208
6000000.00246
6000000.00099
5999999.99978
5999999.99779
5999999.99767
5999999.99882
5999999.9995
5999999.9964
6000000.00065
6000000.00024
5999999.99961
6000000.00001
5999999.99932
6000000.00048
5999999.99889
6000000.00177
5999999.99737
5999999.99634
6000000.00204
5999999.99834
5999999.99781
5999999.99925
6000000.00009
6000000.00055
6000000.00009
6000000.00001
6000000.00011
5999999.99997
6000000.00043
5999999.99958
6000000.00003
6000000.00004
6000000.00008
5999999.99923
5999999.99927
5999999.99959
5999999.99923
5999999.99978
5999999.99996
6000000.00001
6000000.00011
6000000.00019
5999999.99998
5999999.99994
6000000.00017
6000000.00001
6000000.00001
5999999.99998
6000000.00001
6000000.00001
6000000.00011
6000000.00001
6000000.00001
6000000.00007
6000000.00005
5999999.99977
6000000.00001
5999999.99998
6000000.00001
6000000.00001
5999999.99998
5999999.99986
6000000.00025
6000000.00137
5999999.99837
6000000.00239
5999999.99728
5999999.99694
6000000.00228
6000000.00209
5999999.99722
5999999.99988
5999999.99989
5999999.99997
6000000.00016
5999999.99998
6000000.00042
5999999.99977
5999999.99989
6000000.00001
5999999.99991
6000000.00029
5999999.99957
6000000.00061
6000000.00208
5999999.99797
5999999.99811
5999999.99881
5999999.99996
6000000.00203
6000000.00196
5999999.99606
5999999.99612
6000000.00298
6000000.00226
5999999.99671
5999999.99794
6000000.00114
6000000.00187
5999999.99777
5999999.99942
6000000.00044
6000000.00015
6000000.00004
6000000.00001
6000000.00001
6000000.00002
6000000.00007
5999999.99988
5999999.99991
6000000.00001
6000000.00001
6000000.0002
6000000.00003
6000000.00001
5999999.99988
5999999.99986
6000000.00007
6000000.00001
6000000.00002
6000000.00001
6000000.00001
5999999.99983
6000000.00001
6000000.00001
5999999.99995
5999999.9999
6000000.00005
6000000.00032
5999999.99973
6000000.00003
6000000.00042
5999999.99847
6000000.00116
6000000.00051
6000000.00027
6000000.00031
6000000.00045
6000000.00009
6000000.00002
5999999.99961
6000000.00031
5999999.99962
6000000.00041
6000000.00309
6000000.00239
5999999.99772
5999999.99779
6000000.00243
6000000.00218
6000000.00152
6000000.00085
5999999.99856
5999999.99941
6000000.00004
6000000.00002
5999999.9999
5999999.9994
6000000.00006
5999999.99928
5999999.99982
5999999.99954
5999999.99973
6000000.00049
6000000.00031
5999999.99974
5999999.99978
6000000.00001
5999999.99988
6000000.00006
6000000.00004
6000000.00001
5999999.99994
6000000.00002
6000000.00009
5999999.99977
6000000.00001
6000000.00002
6000000.00001
6000000.00007
6000000.00002
6000000.00007
6000000.00004
5999999.99995
5999999.99996
6000000.00063
5999999.99889
6000000.0019
5999999.99736
5999999.99969
6000000.00361
6000000.00317
6000000.00256
6000000.00166
6000000.00047
5999999.99846
5999999.99845
5999999.99952
5999999.99951
6000000.00015
6000000.00471
5999999.99643
5999999.99871
5999999.99557
6000000.00213
6000000.00102
6000000.00111
6000000.00049
6000000.00044
6000000.00021
6000000.00022
6000000.0004
5999999.99977
6000000.00002
6000000.00001
6000000
6000000.00001
5999999.99989
6000000.00055
5999999.99916
6000000.00144
5999999.99883
5999999.99873
5999999.99906
6000000.00107
5999999.99743
5999999.99783
6000000.00152
5999999.99773
5999999.99658
6000000.00321
6000000.00275
5999999.99784
6000000.00114
6000000.00015
5999999.99997
6000000.00035
6000000.00005
6000000.00002
6000000.00001
6000000.00001
6000000.00002
6000000.00001
6000000.00002
6000000.00001
6000000.00007
6000000.00017
6000000.00019
6000000.00001
6000000.00001
6000000.00001
6000000.00002
6000000.00065
5999999.99896
6000000.00174
6000000.00193
6000000.00024
6000000.00101
6000000.00011
6000000.00133
5999999.99969
6000000.00012
5999999.99906
6000000.0001
5999999.99954
6000000.00117
6000000.00024
5999999.99998
5999999.9999
5999999.99997
5999999.99992
6000000
5999999.99997
6000000.00013
6000000.00019
5999999.99992
6000000
5999999.99997
6000000.00011
6000000
6000000
5999999.99998
5999999.99997
6000000.00028
6000000.00057
5999999.999
6000000.00054
6000000.00002
6000000.00042
6000000.00003
5999999.99997
5999999.99998
6000000
6000000.00026
5999999.99909
5999999.99986
5999999.99999
5999999.99994
6000000.00001
5999999.99993
6000000
5999999.99994
6000000.00006
5999999.99988
5999999.99996
6000000.00004
5999999.99994
5999999.99993
6000000.00001
6000000.00006
5999999.99994
5999999.99999
6000000
5999999.99994
5999999.99997
6000000.00001
5999999.99994
6000000.00019
6000000.00001
6000000.00013
6000000.00004
6000000.00021
5999999.99948
6000000.00094
5999999.99834
6000000.00021
6000000.00039
6000000.00076
6000000.00177
5999999.99862
5999999.99985
5999999.99971
6000000.00002
5999999.99992
5999999.99989
6000000.00012
5999999.99969
6000000.00002
6000000.00003
6000000
6000000.00037
6000000.00048
6000000.00073
5999999.99918
5999999.99926
6000000.001
5999999.99818
6000000.00092
5999999.9986
6000000.00265
6000000.00421
5999999.99683
5999999.99948
5999999.99788
6000000.00177
6000000.00014
6000000.00272
5999999.9974
5999999.99596
6000000.00218
5999999.9975
5999999.9979
5999999.9987
5999999.99836
5999999.99987
5999999.99842
5999999.99812
5999999.99547
6000000.00142
5999999.99655
5999999.99686
5999999.99817
5999999.99747
5999999.99945
5999999.99696
6000000.0017
6000000.0007
5999999.99979
5999999.99981
6000000.00001
5999999.99993
5999999.99996
6000000.00015
5999999.99989
6000000.00002
5999999.9989
6000000.00105
5999999.99754
5999999.9948
6000000.00293
5999999.99722
5999999.9969
6000000.00292
5999999.99687
5999999.99705
6000000.00039
6000000.00002
6000000.00002
6000000.00017
6000000.00003
6000000.00001
6000000.00001
6000000.00003
5999999.99989
6000000.00012
6000000.00002
6000000.00001
6000000.00001
5999999.99993
5999999.99994
6000000.00002
6000000.00016
5999999.99957
5999999.99879
6000000.00034
5999999.99964
5999999.99994
5999999.99988
5999999.9998
5999999.99982
6000000.00034
5999999.99972
5999999.9996
6000000.00003
5999999.99969
6000000.00009
6000000.00004
5999999.9999
6000000.00007
6000000.00001
6000000.001
5999999.99888
5999999.99902
6000000.00007
6000000.00001
6000000.00007
6000000.00005
5999999.99986
6000000.0002
6000000.00022
6000000.00003
5999999.99988
5999999.99999
5999999.99983
6000000.00017
6000000.00004
6000000.0004
5999999.99993
6000000.00026
6000000.00122
6000000.00198
5999999.99636
5999999.99501
6000000.00299
6000000.0003
6000000.00057
6000000.00015
6000000.00015
6000000.00022
6000000.00001
6000000.00016
5999999.99997
5999999.99992
6000000
6000000.00002
5999999.99999
5999999.99998
5999999.99999
6000000
6000000.00002
6000000.00011
6000000
6000000
6000000.00001
6000000
6000000.00011
6000000.00001
6000000.00001
5999999.99994
5999999.99998
6000000.00011
6000000
6000000
6000000.00011
6000000
6000000
5999999.99993
6000000.00001
5999999.99994
6000000.00001
6000000
5999999.99977
5999999.99992
5999999.99994
6000000.00001
6000000.00017
5999999.99999
6000000
5999999.99994
6000000.00004
6000000
6000000.00006
5999999.99994
6000000
6000000
5999999.99994
5999999.99998
6000000.00001
5999999.99993
6000000.00019
6000000.00002
5999999.99992
6000000.00021
5999999.99962
6000000.00057
6000000.00241
5999999.99759
5999999.99932
6000000.00191
6000000.00002
6000000.00002
6000000.00003
5999999.99988
6000000.00002
6000000.00004
6000000.00012
6000000.00004
6000000.00003
6000000.00002
5999999.99989
6000000.00013
6000000.00013
6000000.00012
6000000.00001
5999999.99989
6000000.00001
5999999.99993
6000000.00001
6000000.00002
6000000
5999999.99989
5999999.99982
6000000.00029
5999999.99993
6000000.00035
5999999.9996
5999999.99987
5999999.99989
6000000.00007
5999999.99949
6000000.00055
5999999.9992
5999999.99789
6000000.00175
5999999.99741
5999999.99567
6000000.00289
5999999.99842
6000000
5999999.99885
6000000.00069
6000000.00049
5999999.99973
6000000.00013
5999999.99993
5999999.99994
6000000.00017
6000000.00013
6000000.00002
5999999.99989
6000000.00001
6000000.00004
5999999.99993
6000000.00004
6000000.00015
5999999.99999
6000000.00011
5999999.9999
5999999.99988
6000000.00006
5999999.99956
5999999.99998
5999999.9995
6000000
5999999.99998
5999999.99998
5999999.99994
6000000.00018
5999999.99998
5999999.99995
5999999.99996
5999999.99998
5999999.99998
5999999.9999
5999999.99993
6000000.00012
5999999.99998
5999999.99998
6000000.00006
5999999.99998
5999999.99998
6000000.00002
5999999.99998
6000000.00006
5999999.99993
6000000.00001
5999999.9998
5999999.99991
6000000.00006
5999999.99998
5999999.99998
5999999.99998
5999999.99998
5999999.99993
5999999.99998
6000000
5999999.99993
5999999.9999
6000000.00012
5999999.99988
5999999.99992
5999999.99998
6000000.00001
6000000.00016
5999999.99989
5999999.99998
5999999.99998
6000000.00002
5999999.99993
5999999.99998
5999999.9999
5999999.99993
5999999.99998
5999999.99998
5999999.99989
6000000.00001
5999999.99995
6000000.00019
6000000
6000000.00003
6000000.00002
5999999.99993
5999999.99998
6000000.00007
6000000.00026
5999999.9989
6000000.00067
6000000.00009
6000000.0001
6000000.00005
6000000.0001
6000000.00002
5999999.9998
6000000.00048
6000000.00402
6000000.00191
5999999.9996
6000000.00348
6000000.00131
5999999.99759
6000000.00171
6000000.00058
6000000.00073
5999999.99899
5999999.99943
6000000.00003
5999999.99995
6000000
5999999.99981
6000000.00038
6000000.00004
5999999.99995
6000000
5999999.99991
6000000.0003
5999999.99942
6000000.00137
5999999.9983
6000000.00189
6000000.00301
5999999.99799
6000000.00351
5999999.99635
5999999.99701
6000000.00251
5999999.99949
6000000.00431
5999999.99649
6000000.00008
6000000.00043
5999999.99955
5999999.99991
5999999.99995
5999999.99997
6000000.00006
5999999.99989
6000000.0001
5999999.99995
5999999.99997
5999999.99994
5999999.99993
6000000.00008
5999999.99998
5999999.99998
6000000.0002
5999999.99995
5999999.99992
6000000.00005
5999999.99935
5999999.99992
5999999.99981
5999999.99972
5999999.99984
6000000.00126
5999999.9987
5999999.99991
6000000.00216
6000000.00162
5999999.99647
6000000.00042
6000000.00021
6000000.00159
6000000.00203
5999999.99648
5999999.99958
5999999.99942
6000000.00279
6000000.0033
5999999.99704
5999999.99888
5999999.99742
6000000.00085
5999999.99674
5999999.99671
5999999.99904
5999999.99705
6000000.00044
5999999.99887
5999999.99882
5999999.9989
6000000.00072
5999999.99692
5999999.99811
6000000.00223
6000000.00104
5999999.99701
5999999.99817
5999999.99795
5999999.9981
5999999.99873
5999999.99728
5999999.99958
5999999.99766
5999999.99522
6000000.0028
5999999.99883
5999999.99886
5999999.99851
5999999.9965
5999999.99682
6000000.00206
5999999.99761
5999999.99634
5999999.99951
5999999.99718
6000000.0006
6000000.00184
5999999.99589
5999999.99747
5999999.99681
6000000.0004
6000000.0017
5999999.99718
6000000.00492
6000000.00214
5999999.99886
6000000.00355
5999999.99598
5999999.9969
6000000.00105
5999999.99955
5999999.99992
5999999.99743
5999999.99813
6000000.00244
5999999.99784
5999999.9993
6000000.00174
5999999.99989
6000000.00141
6000000.0033
6000000.00133
6000000.00032
5999999.99796
5999999.99836
6000000.00258
6000000.0009
5999999.99575
5999999.99765
6000000.00028
6000000.0029
6000000.00055
5999999.99975
6000000.00067
6000000.00041
6000000.00019
5999999.99809
6000000.00075
6000000.00092
5999999.99934
6000000.00138
5999999.99831
5999999.99996
5999999.99894
6000000.00073
6000000.00083
5999999.99688
5999999.99997
6000000.00041
5999999.99801
5999999.99835
6000000.00049
5999999.99987
5999999.99929
6000000.00035
5999999.99974
5999999.99884
5999999.9982
5999999.99925
5999999.99801
6000000.00033
5999999.99868
6000000.00356
5999999.99967
5999999.99945
6000000.00431
5999999.99683
6000000.00093
6000000.00116
6000000.00571
5999999.99954
6000000.00174
6000000.0075
6000000.00409
5999999.99855
5999999.99737
6000000.00797
6000000.00572
6000000.00289
6000000.00139
5999999.99735
6000000.00608
6000000.00496
6000000.00211
6000000.00254
6000000.00222
5999999.9969
6000000.00444
6000000.00442
6000000.00074
5999999.99871
6000000.00808
6000000.00175
5999999.9959
6000000.00252
6000000.00093
6000000.00914
6000000.00347
5999999.99804
6000000.00022
6000000.00766
5999999.99899
5999999.99776
6000000.008
6000000.00655
6000000.00132
6000000.00471
6000000.00644
6000000.00286
5999999.99819
6000000.00216
6000000.00424
6000000.00561
6000000.00592
6000000.00312
6000000.00153
6000000.0039
6000000.00537
6000000.00128
6000000.00121
6000000.00434
5999999.99652
6000000.00511
6000000.00262
6000000.00855
6000000.00241
6000000.00416
6000000.00464
5999999.9965
6000000.00454
6000000.00305
5999999.99841
6000000.00503
5999999.99863
5999999.99944
5999999.99927
6000000.00005
5999999.99836
5999999.9993
5999999.99871
5999999.99968
5999999.99967
5999999.99894
5999999.99898
5999999.99888
5999999.99937
5999999.99896
6000000.00051
5999999.99822
5999999.99839
5999999.99871
6000000.00018
5999999.99944
5999999.99837
5999999.99874
6000000.00027
5999999.99863
5999999.99832
5999999.99868
5999999.99849
5999999.99943
5999999.99927
5999999.9973
5999999.99853
6000000.00042
5999999.99871
5999999.99797
5999999.99948
5999999.99804
6000000.00011
5999999.99976
5999999.99879
5999999.99683
5999999.99866
5999999.99963
5999999.99861
5999999.99973
6000000.00001
5999999.9984
5999999.998
5999999.99955
5999999.99766
5999999.99752
5999999.99976
5999999.99985
6000000.00036
5999999.99992
5999999.99937
6000000.00001
5999999.9979
5999999.99806
5999999.99858
5999999.99879
5999999.99881
6000000.00039
6000000.00243
5999999.99825
5999999.99949
5999999.99954
5999999.99983
5999999.99978
6000000.00053
5999999.99976
5999999.99972
6000000.00035
5999999.99982
5999999.99983
5999999.99974
5999999.9998
6000000.00044
5999999.99998
5999999.99986
5999999.99976
6000000.00034
6000000.00032
5999999.99987
6000000.00029
5999999.99992
6000000.00039
5999999.99969
5999999.99968
6000000.00037
5999999.99996
6000000.00041
5999999.99978
5999999.9999
5999999.99971
6000000.00028
6000000.00047
6000000.00017
6000000.00047
5999999.99978
6000000.0004
6000000.00043
5999999.99968
6000000.00005
5999999.99982
6000000.00037
5999999.99996
5999999.99966
6000000.00057
6000000.00013
6000000.00036
6000000.00043
5999999.99976
5999999.99968
5999999.99994
6000000.00018
6000000.00013
6000000.00043
6000000.00038
5999999.99991
5999999.99996
6000000.00024
6000000.00003
6000000.00037
6000000.0002
6000000.00017
6000000.00046
5999999.99982
6000000.00035
6000000.00055
6000000.00071
6000000.00064
6000000.00074
6000000.00049
6000000.00071
6000000.00068
6000000.00102
6000000.0007
6000000.0006
6000000.00055
6000000.00067
6000000.00059
6000000.00065
6000000.00066
6000000.00065
6000000.00045
6000000.00073
6000000.00086
6000000.00056
6000000.0007
6000000.00075
6000000.00048
6000000.00062
6000000.00057
6000000.00065
6000000.00054
6000000.00045
6000000.0007
6000000.00071
6000000.00059
6000000.00065
6000000.00071
6000000.00085
6000000.00052
6000000.0007
6000000.00042
6000000.0006
6000000.0005
6000000.00058
6000000.00072
6000000.0007
6000000.00082
6000000.00081
6000000.00069
6000000.00067
6000000.00047
6000000.00078
6000000.00075
6000000.00082
6000000.0006
6000000.00051
6000000.0005
6000000.00073
6000000.00071
6000000.00067
6000000.0008
6000000.00081
6000000.00073
6000000.0007
6000000.00058
6000000.0009
6000000.0009
6000000.00071
5999999.9992
5999999.99911
5999999.99908
5999999.99921
5999999.99918
5999999.99939
5999999.99914
5999999.99917
5999999.99901
5999999.99895
5999999.9992
5999999.99926
5999999.99954
5999999.99915
5999999.99905
5999999.99918
5999999.99909
5999999.99932
5999999.99919
5999999.99915
5999999.99916
5999999.99902
5999999.99937
5999999.99935
5999999.99917
5999999.99908
5999999.99945
5999999.99915
5999999.99923
5999999.99928
5999999.99902
5999999.99958
5999999.99935
5999999.99927
5999999.99916
5999999.99913
5999999.99932
5999999.99895
5999999.99905
5999999.99912
5999999.99921
5999999.99925
5999999.99915
5999999.99912
5999999.99918
5999999.99906
5999999.99943
5999999.99931
5999999.99914
5999999.9992
5999999.99916
5999999.99898
5999999.99898
5999999.99894
5999999.99908
5999999.99925
5999999.99928
5999999.99928
5999999.99926
5999999.99921
5999999.99916
5999999.99917
5999999.99913
5999999.999
5999999.9996
5999999.99946
5999999.99944
5999999.99982
5999999.99962
5999999.99973
5999999.99973
5999999.99961
5999999.99979
5999999.9996
5999999.99949
5999999.99941
5999999.99951
5999999.99976
5999999.99975
5999999.99973