/*--------------------------------*- C++ -*----------------------------------*\
  =========                 |
  \\      /  F ield         | OpenFOAM: The Open Source CFD Toolbox
   \\    /   O peration     | Website:  https://openfoam.org
    \\  /    A nd           | Version:  6
     \\/     M anipulation  |
\*---------------------------------------------------------------------------*/
FoamFile
{
    version     2.0;
    format      ascii;
    class       volScalarField;
    location    "2e-08";
    object      C6H14;
}
// * * * * * * * * * * * * * * * * * * * * * * * * * * * * * * * * * * * * * //

dimensions      [0 0 0 0 0 0 0];

internalField   nonuniform List<scalar> 
12288
(
0.001
0.001
0.001
0.001
0.001
0.001
0.001
0.001
0.001
0.001
0.001
0.001
0.001
0.001
0.001
0.001
0.001
0.001
0.001
0.001
0.001
0.001
0.001
0.001
0.001
0.001
0.001
0.001
0.001
0.001
0.001
0.001
0.001
0.001
0.001
0.001
0.001
0.001
0.001
0.001
0.001
0.001
0.001
0.001
0.001
0.001
0.001
0.001
0.001
0.001
0.001
0.001
0.001
0.001
0.001
0.001
0.001
0.001
0.001
0.001
0.001
0.001
0.001
0.001
0.001
0.001
0.001
0.001
0.001
0.001
0.001
0.001
0.001
0.001
0.001
0.001
0.001
0.001
0.001
0.001
0.001
0.001
0.001
0.001
0.001
0.001
0.001
0.001
0.001
0.001
0.001
0.001
0.001
0.001
0.001
0.001
0.001
0.001
0.001
0.001
0.001
0.001
0.001
0.001
0.001
0.001
0.001
0.001
0.001
0.001
0.001
0.001
0.001
0.001
0.001
0.001
0.001
0.001
0.001
0.001
0.001
0.001
0.001
0.001
0.001
0.001
0.001
0.001
0.001
0.001
0.001
0.001
0.001
0.001
0.001
0.001
0.001
0.001
0.001
0.001
0.001
0.001
0.001
0.001
0.001
0.001
0.001
0.001
0.001
0.001
0.001
0.001
0.001
0.001
0.001
0.001
0.001
0.001
0.001
0.001
0.001
0.001
0.001
0.001
0.001
0.001
0.001
0.001
0.001
0.001
0.001
0.001
0.001
0.001
0.001
0.001
0.001
0.001
0.001
0.001
0.001
0.001
0.001
0.001
0.001
0.001
0.001
0.001
0.001
0.001
0.001
0.001
0.001
0.001
0.001
0.001
0.001
0.001
0.001
0.001
0.001
0.001
0.001
0.001
0.001
0.001
0.001
0.001
0.001
0.001
0.001
0.001
0.001
0.001
0.001
0.001
0.001
0.001
0.001
0.001
0.001
0.001
0.001
0.001
0.001
0.001
0.001
0.001
0.001
0.001
0.001
0.001
0.001
0.001
0.001
0.001
0.001
0.001
0.001
0.001
0.001
0.001
0.001
0.001
0.001
0.001
0.001
0.001
0.001
0.001
0.001
0.001
0.001
0.001
0.001
0.001
0.001
0.001
0.001
0.001
0.001
0.001
0.001
0.001
0.001
0.001
0.001
0.001
0.001
0.001
0.001
0.001
0.001
0.001
0.001
0.001
0.001
0.001
0.001
0.001
0.001
0.001
0.001
0.001
0.001
0.001
0.001
0.001
0.001
0.001
0.001
0.001
0.001
0.001
0.001
0.001
0.001
0.001
0.001
0.001
0.001
0.001
0.001
0.001
0.001
0.001
0.001
0.001
0.001
0.001
0.001
0.001
0.001
0.001
0.001
0.001
0.001
0.001
0.001
0.001
0.001
0.001
0.001
0.001
0.001
0.001
0.001
0.001
0.001
0.001
0.001
0.001
0.001
0.001
0.001
0.001
0.001
0.001
0.001
0.001
0.001
0.001
0.001
0.001
0.001
0.001
0.001
0.001
0.001
0.001
0.001
0.001
0.001
0.001
0.001
0.001
0.001
0.001
0.001
0.001
0.001
0.001
0.001
0.001
0.001
0.001
0.001
0.001
0.001
0.001
0.001
0.001
0.001
0.001
0.001
0.001
0.001
0.001
0.001
0.001
0.001
0.001
0.001
0.001
0.001
0.001
0.001
0.001
0.001
0.001
0.001
0.001
0.001
0.001
0.001
0.001
0.001
0.001
0.001
0.001
0.001
0.001
0.001
0.001
0.001
0.001
0.001
0.001
0.001
0.001
0.001
0.001
0.001
0.001
0.001
0.001
0.001
0.001
0.001
0.001
0.001
0.001
0.001
0.001
0.001
0.001
0.001
0.001
0.001
0.001
0.001
0.001
0.001
0.001
0.001
0.001
0.001
0.001
0.001
0.001
0.001
0.001
0.001
0.001
0.001
0.001
0.001
0.001
0.001
0.001
0.001
0.001
0.001
0.001
0.001
0.001
0.001
0.001
0.001
0.001
0.001
0.001
0.001
0.001
0.001
0.001
0.001
0.001
0.001
0.001
0.001
0.001
0.001
0.001
0.001
0.001
0.001
0.001
0.001
0.001
0.001
0.001
0.001
0.001
0.001
0.001
0.001
0.001
0.001
0.001
0.001
0.001
0.001
0.001
0.001
0.001
0.001
0.001
0.001
0.001
0.001
0.001
0.001
0.001
0.001
0.001
0.001
0.001
0.001
0.001
0.001
0.001
0.001
0.001
0.001
0.001
0.001
0.001
0.001
0.001
0.001
0.001
0.001
0.001
0.001
0.001
0.001
0.001
0.001
0.001
0.001
0.001
0.001
0.001
0.001
0.001
0.001
0.001
0.001
0.001
0.001
0.001
0.001
0.001
0.001
0.001
0.001
0.001
0.001
0.001
0.001
0.001
0.001
0.001
0.001
0.001
0.001
0.001
0.001
0.001
0.001
0.001
0.001
0.001
0.001
0.001
0.001
0.001
0.001
0.001
0.001
0.001
0.001
0.001
0.001
0.001
0.001
0.001
0.001
0.001
0.001
0.001
0.001
0.001
0.001
0.001
0.001
0.001
0.001
0.001
0.001
0.001
0.001
0.001
0.001
0.001
0.001
0.001
0.001
0.001
0.001
0.001
0.001
0.001
0.001
0.001
0.001
0.001
0.001
0.001
0.001
0.001
0.001
0.001
0.001
0.001
0.001
0.001
0.001
0.001
0.001
0.001
0.001
0.001
0.001
0.001
0.001
0.001
0.001
0.001
0.001
0.001
0.001
0.001
0.001
0.001
0.001
0.001
0.001
0.001
0.001
0.001
0.001
0.001
0.001
0.001
0.001
0.001
0.001
0.001
0.001
0.001
0.001
0.001
0.001
0.001
0.001
0.001
0.001
0.001
0.001
0.001
0.001
0.001
0.001
0.001
0.001
0.001
0.001
0.001
0.001
0.001
0.001
0.001
0.001
0.001
0.001
0.001
0.001
0.001
0.001
0.001
0.001
0.001
0.001
0.001
0.001
0.001
0.001
0.001
0.001
0.001
0.001
0.001
0.001
0.001
0.001
0.001
0.001
0.001
0.001
0.001
0.001
0.001
0.000999999999999
0.000999999999999
0.000999999999999
0.000999999999999
0.000999999999999
0.000999999999999
0.000999999999999
0.000999999999999
0.000999999999999
0.000999999999999
0.000999999999999
0.000999999999999
0.000999999999999
0.000999999999999
0.000999999999999
0.000999999999999
0.000999999999999
0.000999999999999
0.000999999999999
0.000999999999999
0.000999999999999
0.000999999999999
0.000999999999999
0.000999999999999
0.000999999999999
0.000999999999999
0.000999999999999
0.000999999999999
0.000999999999999
0.000999999999999
0.000999999999999
0.000999999999999
0.000999999999999
0.000999999999999
0.000999999999999
0.000999999999999
0.000999999999999
0.000999999999999
0.000999999999999
0.000999999999999
0.000999999999999
0.000999999999999
0.000999999999999
0.000999999999999
0.000999999999999
0.000999999999999
0.000999999999999
0.000999999999999
0.000999999999999
0.000999999999999
0.000999999999999
0.000999999999999
0.000999999999998
0.000999999999998
0.000999999999998
0.000999999999998
0.000999999999998
0.000999999999998
0.000999999999998
0.000999999999999
0.000999999999999
0.000999999999999
0.000999999999999
0.000999999999999
0.000999999999996
0.000999999999996
0.000999999999996
0.000999999999996
0.000999999999996
0.000999999999996
0.000999999999996
0.000999999999996
0.000999999999996
0.000999999999996
0.000999999999996
0.000999999999996
0.000999999999996
0.000999999999996
0.000999999999996
0.000999999999996
0.000999999999996
0.000999999999996
0.000999999999996
0.000999999999996
0.000999999999996
0.000999999999996
0.000999999999996
0.000999999999996
0.000999999999996
0.000999999999996
0.000999999999996
0.000999999999996
0.000999999999996
0.000999999999996
0.000999999999996
0.000999999999996
0.000999999999996
0.000999999999996
0.000999999999996
0.000999999999996
0.000999999999996
0.000999999999996
0.000999999999996
0.000999999999996
0.000999999999996
0.000999999999996
0.000999999999996
0.000999999999996
0.000999999999996
0.000999999999996
0.000999999999996
0.000999999999996
0.000999999999996
0.000999999999995
0.000999999999995
0.000999999999995
0.000999999999995
0.000999999999995
0.000999999999995
0.000999999999995
0.000999999999995
0.000999999999995
0.000999999999995
0.000999999999995
0.000999999999995
0.000999999999995
0.000999999999996
0.000999999999996
0.000999999999995
0.000999999999995
0.000999999999995
0.000999999999995
0.000999999999996
0.000999999999996
0.000999999999996
0.000999999999996
0.000999999999996
0.000999999999996
0.000999999999996
0.000999999999996
0.000999999999996
0.000999999999995
0.000999999999995
0.000999999999995
0.000999999999995
0.000999999999995
0.000999999999995
0.000999999999995
0.000999999999995
0.000999999999995
0.000999999999995
0.000999999999995
0.000999999999995
0.000999999999995
0.000999999999995
0.000999999999995
0.000999999999995
0.000999999999995
0.000999999999995
0.000999999999995
0.000999999999995
0.000999999999995
0.000999999999995
0.000999999999995
0.000999999999995
0.000999999999995
0.000999999999995
0.000999999999995
0.000999999999995
0.000999999999995
0.000999999999995
0.000999999999995
0.000999999999995
0.000999999999995
0.000999999999995
0.000999999999995
0.000999999999995
0.000999999999995
0.000999999999995
0.000999999999995
0.000999999999995
0.000999999999995
0.000999999999995
0.000999999999995
0.000999999999995
0.000999999999995
0.000999999999995
0.000999999999995
0.000999999999995
0.000999999999995
0.000999999999995
0.000999999999995
0.001
0.001
0.001
0.001
0.001
0.001
0.001
0.001
0.001
0.001
0.001
0.001
0.001
0.001
0.001
0.001
0.001
0.001
0.001
0.001
0.001
0.001
0.001
0.001
0.001
0.001
0.001
0.001
0.001
0.001
0.001
0.001
0.001
0.001
0.001
0.001
0.001
0.001
0.001
0.001
0.001
0.001
0.001
0.001
0.001
0.001
0.001
0.001
0.001
0.001
0.001
0.001
0.001
0.001
0.001
0.001
0.001
0.001
0.001
0.001
0.001
0.001
0.001
0.001
0.00100000000002
0.00100000000002
0.00100000000001
0.00100000000001
0.00100000000001
0.00100000000001
0.00100000000001
0.00100000000001
0.00100000000001
0.00100000000001
0.00100000000001
0.00100000000001
0.00100000000001
0.00100000000001
0.00100000000001
0.00100000000001
0.00100000000001
0.00100000000001
0.00100000000002
0.00100000000002
0.00100000000002
0.00100000000002
0.00100000000002
0.00100000000002
0.00100000000002
0.00100000000002
0.00100000000002
0.00100000000002
0.00100000000002
0.00100000000002
0.00100000000002
0.00100000000002
0.00100000000002
0.00100000000002
0.00100000000001
0.00100000000001
0.00100000000001
0.00100000000001
0.00100000000001
0.00100000000001
0.00100000000001
0.00100000000001
0.00100000000001
0.00100000000001
0.00100000000001
0.00100000000001
0.00100000000002
0.00100000000002
0.00100000000002
0.00100000000002
0.00100000000002
0.00100000000002
0.00100000000002
0.00100000000002
0.00100000000002
0.00100000000002
0.00100000000002
0.00100000000002
0.00100000000002
0.00100000000002
0.00100000000002
0.00100000000002
0.00100000000002
0.00100000000002
0.00100000000003
0.00100000000003
0.00100000000003
0.00100000000003
0.00100000000003
0.00100000000003
0.00100000000003
0.00100000000003
0.00100000000003
0.00100000000003
0.00100000000003
0.00100000000003
0.00100000000003
0.00100000000003
0.00100000000003
0.00100000000003
0.00100000000003
0.00100000000003
0.00100000000003
0.00100000000003
0.00100000000003
0.00100000000003
0.00100000000003
0.00100000000003
0.00100000000003
0.00100000000003
0.00100000000003
0.00100000000003
0.00100000000003
0.00100000000003
0.00100000000003
0.00100000000003
0.00100000000003
0.00100000000003
0.00100000000003
0.00100000000003
0.00100000000003
0.00100000000003
0.00100000000003
0.00100000000003
0.00100000000003
0.00100000000003
0.00100000000003
0.00100000000003
0.00100000000003
0.00100000000003
0.00100000000003
0.00100000000003
0.00100000000003
0.00100000000003
0.00100000000003
0.00100000000003
0.00100000000003
0.00100000000003
0.00100000000003
0.00100000000003
0.00100000000003
0.00100000000003
0.00100000000003
0.00100000000003
0.00100000000003
0.00100000000003
0.00100000000003
0.00100000000003
0.00100000000002
0.00100000000002
0.00100000000002
0.00100000000002
0.00100000000002
0.00100000000002
0.00100000000002
0.00100000000002
0.00100000000002
0.00100000000002
0.00100000000002
0.00100000000002
0.00100000000002
0.00100000000002
0.00100000000002
0.00100000000002
0.00100000000002
0.00100000000002
0.00100000000002
0.00100000000002
0.00100000000002
0.00100000000002
0.00100000000002
0.00100000000002
0.00100000000002
0.00100000000002
0.00100000000002
0.00100000000002
0.00100000000002
0.00100000000002
0.00100000000002
0.00100000000002
0.00100000000002
0.00100000000002
0.00100000000002
0.00100000000002
0.00100000000002
0.00100000000002
0.00100000000002
0.00100000000002
0.00100000000002
0.00100000000002
0.00100000000002
0.00100000000003
0.00100000000003
0.00100000000003
0.00100000000003
0.00100000000003
0.00100000000003
0.00100000000003
0.00100000000003
0.00100000000003
0.00100000000003
0.00100000000002
0.00100000000002
0.00100000000002
0.00100000000002
0.00100000000002
0.00100000000002
0.00100000000002
0.00100000000002
0.00100000000002
0.00100000000002
0.00100000000002
0.000999999999969
0.00099999999997
0.000999999999971
0.000999999999972
0.000999999999973
0.000999999999973
0.000999999999974
0.000999999999974
0.000999999999974
0.000999999999974
0.000999999999974
0.000999999999973
0.000999999999973
0.000999999999973
0.000999999999972
0.000999999999971
0.00099999999997
0.00099999999997
0.000999999999969
0.000999999999969
0.000999999999969
0.000999999999968
0.000999999999969
0.000999999999969
0.000999999999969
0.00099999999997
0.000999999999971
0.000999999999971
0.000999999999971
0.000999999999972
0.000999999999972
0.000999999999972
0.000999999999972
0.000999999999972
0.000999999999972
0.000999999999972
0.000999999999973
0.000999999999974
0.000999999999975
0.000999999999975
0.000999999999976
0.000999999999976
0.000999999999976
0.000999999999975
0.000999999999974
0.000999999999973
0.00099999999997
0.000999999999968
0.000999999999966
0.000999999999964
0.000999999999962
0.000999999999961
0.00099999999996
0.00099999999996
0.000999999999961
0.000999999999962
0.000999999999964
0.000999999999965
0.000999999999966
0.000999999999967
0.000999999999968
0.000999999999968
0.000999999999968
0.000999999999969
0.000999999999884
0.000999999999886
0.000999999999888
0.000999999999887
0.000999999999888
0.000999999999888
0.000999999999888
0.000999999999888
0.000999999999888
0.000999999999887
0.000999999999887
0.000999999999889
0.000999999999889
0.000999999999891
0.000999999999893
0.000999999999892
0.000999999999892
0.000999999999892
0.000999999999892
0.000999999999891
0.000999999999889
0.000999999999888
0.000999999999889
0.000999999999889
0.000999999999889
0.00099999999989
0.000999999999889
0.000999999999888
0.000999999999888
0.000999999999887
0.000999999999887
0.000999999999887
0.000999999999886
0.000999999999886
0.000999999999887
0.000999999999888
0.000999999999889
0.00099999999989
0.000999999999892
0.000999999999892
0.000999999999891
0.000999999999889
0.000999999999886
0.000999999999882
0.000999999999879
0.000999999999877
0.000999999999872
0.000999999999868
0.000999999999866
0.000999999999863
0.000999999999861
0.000999999999859
0.00099999999986
0.000999999999861
0.000999999999863
0.000999999999866
0.000999999999869
0.000999999999872
0.000999999999874
0.000999999999874
0.000999999999876
0.000999999999878
0.00099999999988
0.000999999999881
0.00099999999986
0.000999999999862
0.000999999999863
0.000999999999863
0.000999999999862
0.00099999999986
0.00099999999986
0.000999999999859
0.000999999999859
0.000999999999859
0.00099999999986
0.000999999999861
0.000999999999862
0.000999999999866
0.000999999999868
0.000999999999869
0.000999999999869
0.000999999999869
0.000999999999868
0.000999999999866
0.000999999999864
0.000999999999863
0.000999999999862
0.000999999999862
0.000999999999862
0.000999999999861
0.00099999999986
0.000999999999859
0.000999999999857
0.000999999999857
0.000999999999855
0.000999999999854
0.000999999999854
0.000999999999855
0.000999999999858
0.000999999999859
0.00099999999986
0.000999999999859
0.000999999999859
0.000999999999858
0.000999999999856
0.000999999999853
0.000999999999849
0.000999999999846
0.000999999999843
0.000999999999841
0.000999999999839
0.000999999999838
0.000999999999838
0.000999999999839
0.000999999999839
0.000999999999839
0.000999999999841
0.000999999999843
0.000999999999843
0.000999999999844
0.000999999999846
0.000999999999847
0.000999999999848
0.00099999999985
0.000999999999852
0.000999999999854
0.000999999999856
0.000999999999858
0.000999999999914
0.000999999999913
0.000999999999913
0.000999999999913
0.000999999999911
0.00099999999991
0.000999999999909
0.000999999999908
0.000999999999908
0.000999999999909
0.00099999999991
0.00099999999991
0.00099999999991
0.000999999999911
0.000999999999912
0.000999999999914
0.000999999999914
0.000999999999915
0.000999999999914
0.000999999999912
0.000999999999911
0.000999999999911
0.00099999999991
0.000999999999909
0.000999999999907
0.000999999999906
0.000999999999905
0.000999999999905
0.000999999999904
0.000999999999904
0.000999999999902
0.000999999999901
0.000999999999902
0.000999999999904
0.000999999999906
0.000999999999906
0.000999999999906
0.000999999999904
0.000999999999901
0.000999999999899
0.000999999999897
0.000999999999896
0.000999999999895
0.000999999999894
0.000999999999894
0.000999999999893
0.000999999999895
0.0009999999999
0.000999999999904
0.000999999999907
0.00099999999991
0.000999999999912
0.000999999999914
0.000999999999914
0.000999999999913
0.000999999999911
0.000999999999909
0.000999999999908
0.000999999999908
0.00099999999991
0.000999999999911
0.000999999999911
0.000999999999912
0.000999999999913
0.00100000000004
0.00100000000004
0.00100000000004
0.00100000000004
0.00100000000004
0.00100000000004
0.00100000000004
0.00100000000004
0.00100000000004
0.00100000000004
0.00100000000004
0.00100000000004
0.00100000000003
0.00100000000003
0.00100000000003
0.00100000000003
0.00100000000003
0.00100000000003
0.00100000000003
0.00100000000003
0.00100000000003
0.00100000000004
0.00100000000004
0.00100000000003
0.00100000000003
0.00100000000003
0.00100000000003
0.00100000000003
0.00100000000003
0.00100000000003
0.00100000000003
0.00100000000004
0.00100000000004
0.00100000000004
0.00100000000003
0.00100000000003
0.00100000000003
0.00100000000003
0.00100000000003
0.00100000000002
0.00100000000002
0.00100000000003
0.00100000000003
0.00100000000003
0.00100000000004
0.00100000000004
0.00100000000005
0.00100000000006
0.00100000000006
0.00100000000006
0.00100000000007
0.00100000000007
0.00100000000007
0.00100000000007
0.00100000000007
0.00100000000006
0.00100000000006
0.00100000000006
0.00100000000005
0.00100000000005
0.00100000000005
0.00100000000005
0.00100000000005
0.00100000000004
0.0010000000003
0.00100000000029
0.00100000000029
0.00100000000029
0.00100000000029
0.0010000000003
0.0010000000003
0.0010000000003
0.00100000000031
0.00100000000031
0.0010000000003
0.00100000000029
0.00100000000028
0.00100000000027
0.00100000000026
0.00100000000025
0.00100000000025
0.00100000000026
0.00100000000026
0.00100000000027
0.00100000000028
0.00100000000028
0.00100000000028
0.00100000000028
0.00100000000028
0.00100000000028
0.00100000000028
0.00100000000029
0.00100000000029
0.00100000000029
0.0010000000003
0.0010000000003
0.0010000000003
0.0010000000003
0.0010000000003
0.00100000000029
0.00100000000029
0.00100000000029
0.00100000000029
0.00100000000029
0.00100000000029
0.0010000000003
0.00100000000031
0.00100000000032
0.00100000000033
0.00100000000034
0.00100000000035
0.00100000000035
0.00100000000036
0.00100000000036
0.00100000000036
0.00100000000036
0.00100000000036
0.00100000000035
0.00100000000035
0.00100000000035
0.00100000000035
0.00100000000034
0.00100000000034
0.00100000000033
0.00100000000032
0.00100000000031
0.00100000000031
0.0010000000003
0.00100000000072
0.00100000000072
0.00100000000072
0.00100000000072
0.00100000000072
0.00100000000073
0.00100000000074
0.00100000000075
0.00100000000075
0.00100000000075
0.00100000000074
0.00100000000073
0.00100000000072
0.00100000000071
0.0010000000007
0.0010000000007
0.0010000000007
0.00100000000071
0.00100000000072
0.00100000000073
0.00100000000073
0.00100000000073
0.00100000000073
0.00100000000073
0.00100000000073
0.00100000000074
0.00100000000074
0.00100000000074
0.00100000000075
0.00100000000075
0.00100000000076
0.00100000000076
0.00100000000076
0.00100000000075
0.00100000000075
0.00100000000074
0.00100000000074
0.00100000000074
0.00100000000075
0.00100000000075
0.00100000000077
0.00100000000078
0.00100000000079
0.00100000000081
0.00100000000082
0.00100000000083
0.00100000000083
0.00100000000083
0.00100000000083
0.00100000000082
0.00100000000082
0.00100000000081
0.0010000000008
0.0010000000008
0.00100000000079
0.00100000000079
0.00100000000079
0.00100000000078
0.00100000000077
0.00100000000076
0.00100000000075
0.00100000000075
0.00100000000074
0.00100000000073
0.00100000000128
0.00100000000129
0.00100000000129
0.0010000000013
0.0010000000013
0.00100000000131
0.00100000000131
0.00100000000132
0.00100000000131
0.00100000000131
0.00100000000131
0.00100000000132
0.00100000000134
0.00100000000136
0.00100000000137
0.00100000000138
0.00100000000138
0.00100000000138
0.00100000000138
0.00100000000138
0.00100000000138
0.00100000000137
0.00100000000137
0.00100000000137
0.00100000000137
0.00100000000137
0.00100000000137
0.00100000000136
0.00100000000136
0.00100000000136
0.00100000000136
0.00100000000135
0.00100000000135
0.00100000000135
0.00100000000134
0.00100000000133
0.00100000000133
0.00100000000134
0.00100000000136
0.00100000000139
0.0010000000014
0.00100000000141
0.00100000000142
0.00100000000142
0.00100000000141
0.00100000000141
0.0010000000014
0.00100000000138
0.00100000000137
0.00100000000135
0.00100000000134
0.00100000000132
0.00100000000131
0.00100000000129
0.00100000000128
0.00100000000127
0.00100000000127
0.00100000000126
0.00100000000126
0.00100000000127
0.00100000000127
0.00100000000128
0.00100000000128
0.00100000000128
0.0010000000013
0.00100000000131
0.00100000000132
0.00100000000133
0.00100000000134
0.00100000000134
0.00100000000133
0.00100000000131
0.0010000000013
0.00100000000129
0.0010000000013
0.00100000000134
0.0010000000014
0.00100000000145
0.00100000000148
0.0010000000015
0.0010000000015
0.00100000000149
0.00100000000147
0.00100000000145
0.00100000000145
0.00100000000145
0.00100000000145
0.00100000000145
0.00100000000144
0.00100000000143
0.00100000000142
0.0010000000014
0.00100000000139
0.00100000000138
0.00100000000137
0.00100000000137
0.00100000000136
0.00100000000136
0.00100000000136
0.00100000000136
0.00100000000136
0.00100000000138
0.0010000000014
0.00100000000142
0.00100000000143
0.00100000000142
0.00100000000141
0.00100000000138
0.00100000000136
0.00100000000133
0.0010000000013
0.00100000000128
0.00100000000126
0.00100000000124
0.00100000000122
0.00100000000121
0.0010000000012
0.00100000000119
0.00100000000118
0.00100000000117
0.00100000000116
0.00100000000116
0.00100000000117
0.00100000000119
0.00100000000122
0.00100000000124
0.00100000000127
0.00100000000129
0.000999999999987
0.000999999999997
0.00100000000001
0.00100000000002
0.00100000000002
0.00100000000002
0.00100000000001
0.001
0.000999999999989
0.000999999999987
0.001
0.00100000000004
0.0010000000001
0.00100000000014
0.00100000000016
0.00100000000018
0.00100000000018
0.00100000000016
0.00100000000014
0.00100000000012
0.00100000000012
0.00100000000012
0.00100000000012
0.00100000000012
0.0010000000001
0.00100000000009
0.00100000000007
0.00100000000005
0.00100000000003
0.00100000000003
0.00100000000002
0.00100000000001
0.00100000000001
0.00100000000001
0.00100000000002
0.00100000000002
0.00100000000004
0.00100000000005
0.00100000000006
0.00100000000007
0.00100000000006
0.00100000000004
0.00100000000001
0.00099999999997
0.000999999999935
0.000999999999903
0.000999999999877
0.000999999999864
0.000999999999856
0.000999999999852
0.000999999999854
0.000999999999858
0.000999999999863
0.000999999999866
0.000999999999866
0.000999999999861
0.000999999999859
0.000999999999863
0.000999999999872
0.000999999999889
0.000999999999913
0.000999999999938
0.000999999999961
0.000999999999976
0.000999999997264
0.000999999997264
0.00099999999727
0.00099999999728
0.000999999997293
0.000999999997303
0.000999999997317
0.000999999997337
0.000999999997358
0.000999999997378
0.000999999997388
0.000999999997383
0.00099999999737
0.000999999997354
0.000999999997337
0.000999999997324
0.000999999997309
0.0009999999973
0.000999999997297
0.000999999997295
0.000999999997294
0.000999999997296
0.000999999997295
0.00099999999729
0.000999999997277
0.00099999999726
0.000999999997239
0.000999999997221
0.000999999997212
0.000999999997207
0.000999999997201
0.000999999997195
0.000999999997194
0.0009999999972
0.000999999997214
0.00099999999723
0.000999999997241
0.000999999997244
0.000999999997238
0.000999999997225
0.000999999997209
0.000999999997195
0.000999999997183
0.000999999997174
0.000999999997166
0.000999999997162
0.000999999997169
0.000999999997181
0.000999999997198
0.000999999997222
0.000999999997251
0.000999999997281
0.000999999997308
0.000999999997331
0.000999999997347
0.000999999997356
0.000999999997354
0.000999999997347
0.000999999997338
0.000999999997326
0.000999999997311
0.000999999997295
0.00099999999728
0.00099999999727
0.00099999999355
0.000999999993529
0.00099999999352
0.000999999993524
0.000999999993545
0.000999999993569
0.000999999993623
0.000999999993701
0.000999999993772
0.000999999993815
0.000999999993801
0.000999999993717
0.000999999993591
0.000999999993475
0.000999999993389
0.000999999993344
0.000999999993313
0.000999999993313
0.000999999993333
0.000999999993339
0.000999999993335
0.000999999993331
0.000999999993331
0.000999999993335
0.000999999993341
0.000999999993345
0.000999999993343
0.00099999999334
0.000999999993343
0.000999999993346
0.000999999993344
0.000999999993338
0.000999999993335
0.000999999993339
0.000999999993351
0.000999999993363
0.000999999993364
0.000999999993346
0.000999999993316
0.000999999993291
0.000999999993281
0.000999999993296
0.000999999993338
0.000999999993393
0.00099999999345
0.000999999993507
0.000999999993574
0.000999999993627
0.000999999993676
0.000999999993733
0.000999999993789
0.000999999993844
0.000999999993896
0.000999999993941
0.000999999993979
0.000999999994005
0.000999999994001
0.000999999993977
0.000999999993936
0.000999999993874
0.000999999993794
0.000999999993708
0.000999999993634
0.000999999993582
0.000999999990175
0.000999999990129
0.000999999990089
0.000999999990073
0.000999999990085
0.000999999990109
0.00099999999019
0.000999999990312
0.000999999990421
0.000999999990477
0.000999999990432
0.000999999990272
0.00099999999005
0.000999999989849
0.000999999989711
0.00099999998964
0.000999999989606
0.000999999989613
0.000999999989635
0.000999999989631
0.000999999989608
0.000999999989591
0.000999999989593
0.00099999998962
0.000999999989664
0.000999999989712
0.000999999989757
0.000999999989784
0.000999999989817
0.000999999989842
0.000999999989841
0.000999999989833
0.000999999989826
0.000999999989823
0.000999999989821
0.000999999989811
0.000999999989782
0.000999999989731
0.000999999989677
0.00099999998964
0.000999999989638
0.000999999989687
0.000999999989786
0.000999999989918
0.000999999990054
0.000999999990183
0.000999999990316
0.00099999999041
0.000999999990489
0.000999999990571
0.000999999990644
0.000999999990713
0.000999999990781
0.000999999990842
0.000999999990898
0.000999999990942
0.000999999990936
0.000999999990896
0.000999999990827
0.000999999990719
0.000999999990583
0.000999999990437
0.000999999990314
0.00099999999023
0.00099999998982
0.000999999989761
0.00099999998968
0.00099999998962
0.000999999989582
0.000999999989572
0.000999999989607
0.000999999989691
0.000999999989792
0.000999999989843
0.000999999989792
0.000999999989631
0.000999999989418
0.000999999989232
0.000999999989113
0.000999999989056
0.000999999989034
0.000999999989031
0.000999999989017
0.000999999988969
0.000999999988911
0.000999999988878
0.000999999988891
0.000999999988954
0.000999999989051
0.00099999998916
0.000999999989269
0.000999999989336
0.000999999989411
0.000999999989464
0.000999999989464
0.000999999989454
0.000999999989445
0.000999999989431
0.000999999989403
0.000999999989352
0.000999999989269
0.000999999989193
0.000999999989113
0.000999999989043
0.00099999998903
0.000999999989088
0.000999999989202
0.000999999989353
0.000999999989525
0.000999999989692
0.000999999989853
0.000999999989961
0.000999999990046
0.000999999990128
0.000999999990194
0.000999999990255
0.000999999990316
0.000999999990376
0.000999999990435
0.000999999990484
0.000999999990486
0.000999999990451
0.000999999990387
0.000999999990287
0.000999999990162
0.000999999990033
0.00099999998993
0.000999999989865
0.00099999999632
0.000999999996275
0.000999999996168
0.000999999996044
0.000999999995889
0.000999999995777
0.000999999995656
0.000999999995572
0.000999999995581
0.000999999995614
0.000999999995621
0.000999999995599
0.000999999995573
0.000999999995568
0.000999999995581
0.000999999995597
0.000999999995598
0.000999999995571
0.000999999995486
0.000999999995366
0.000999999995269
0.000999999995228
0.000999999995261
0.000999999995367
0.000999999995517
0.000999999995677
0.000999999995839
0.000999999995939
0.000999999996048
0.000999999996118
0.000999999996119
0.000999999996113
0.000999999996107
0.000999999996084
0.000999999996029
0.00099999999593
0.000999999995797
0.000999999995703
0.000999999995597
0.000999999995483
0.000999999995419
0.000999999995408
0.000999999995442
0.000999999995518
0.000999999995607
0.000999999995707
0.000999999995809
0.000999999995872
0.000999999995915
0.000999999995951
0.000999999995975
0.000999999995997
0.000999999996019
0.000999999996047
0.000999999996081
0.000999999996117
0.000999999996145
0.000999999996162
0.000999999996172
0.000999999996177
0.000999999996186
0.000999999996206
0.000999999996244
0.000999999996291
0.00100000001293
0.00100000001295
0.00100000001284
0.00100000001267
0.00100000001236
0.00100000001206
0.00100000001171
0.00100000001137
0.0010000000112
0.00100000001121
0.00100000001135
0.00100000001161
0.00100000001193
0.00100000001225
0.00100000001249
0.00100000001263
0.00100000001267
0.00100000001263
0.0010000000125
0.00100000001233
0.00100000001223
0.0010000000122
0.00100000001226
0.00100000001238
0.00100000001253
0.00100000001269
0.00100000001283
0.00100000001292
0.00100000001301
0.00100000001307
0.00100000001307
0.00100000001308
0.00100000001308
0.00100000001306
0.001000000013
0.0010000000129
0.00100000001276
0.00100000001267
0.00100000001256
0.00100000001243
0.00100000001229
0.00100000001215
0.001000000012
0.00100000001186
0.00100000001174
0.00100000001165
0.00100000001157
0.0010000000115
0.00100000001143
0.00100000001137
0.00100000001131
0.00100000001126
0.0010000000112
0.00100000001116
0.00100000001114
0.00100000001114
0.00100000001121
0.00100000001134
0.0010000000115
0.0010000000117
0.00100000001195
0.00100000001224
0.00100000001252
0.00100000001276
0.00100000003937
0.00100000003949
0.00100000003943
0.00100000003927
0.00100000003886