/*--------------------------------*- C++ -*----------------------------------*\
  =========                 |
  \\      /  F ield         | OpenFOAM: The Open Source CFD Toolbox
   \\    /   O peration     | Website:  https://openfoam.org
    \\  /    A nd           | Version:  6
     \\/     M anipulation  |
\*---------------------------------------------------------------------------*/
FoamFile
{
    version     2.0;
    format      ascii;
    class       volScalarField;
    location    "2e-08";
    object      p;
}
// * * * * * * * * * * * * * * * * * * * * * * * * * * * * * * * * * * * * * //

dimensions      [1 -1 -2 0 0 0 0];

internalField   nonuniform List<scalar> 
12288
(
5004395.43555
5004395.30615
5004395.18658
5004395.07345
5004394.96016
5004394.84087
5004394.71265
5004394.57809
5004394.44511
5004394.32362
5004394.2222
5004394.1457
5004394.09565
5004394.06952
5004394.05797
5004394.05365
5004394.05514
5004394.06254
5004394.0782
5004394.10473
5004394.1444
5004394.20031
5004394.27451
5004394.36567
5004394.46612
5004394.56288
5004394.63873
5004394.67459
5004394.67587
5004394.64568
5004394.58116
5004394.50048
5004394.42018
5004394.35303
5004394.30941
5004394.29275
5004394.30507
5004394.34583
5004394.40619
5004394.47934
5004394.55886
5004394.6405
5004394.71897
5004394.78719
5004394.84484
5004394.89656
5004394.94638
5004394.99658
5004395.05252
5004395.12363
5004395.21209
5004395.31145
5004395.43547
5004395.58717
5004395.75691
5004395.92132
5004396.05255
5004396.12385
5004396.13556
5004396.09186
5004395.99009
5004395.85587
5004395.71461
5004395.57339
5010171.39445
5010171.12996
5010170.84768
5010170.54386
5010170.21019
5010169.8399
5010169.4321
5010168.9946
5010168.54222
5010168.09266
5010167.6624
5010167.26336
5010166.90018
5010166.56868
5010166.25881
5010165.96011
5010165.6655
5010165.37334
5010165.08651
5010164.81291
5010164.56218
5010164.34335
5010164.16305
5010164.02317
5010163.91895
5010163.8373
5010163.75506
5010163.64687
5010163.49845
5010163.31004
5010163.08717
5010162.84907
5010162.63068
5010162.46513
5010162.37508
5010162.35269
5010162.40576
5010162.55323
5010162.78054
5010163.07434
5010163.42257
5010163.81376
5010164.2371
5010164.68255
5010165.14459
5010165.62098
5010166.11035
5010166.6124
5010167.12924
5010167.66643
5010168.22839
5010168.80971
5010169.4034
5010170.01116
5010170.62002
5010171.18151
5010171.64188
5010171.96901
5010172.15635
5010172.21613
5010172.16823
5010172.03497
5010171.85135
5010171.63759
5010244.92697
5010244.58768
5010244.21243
5010243.79542
5010243.32387
5010242.78592
5010242.17953
5010241.5149
5010240.81013
5010240.08667
5010239.3675
5010238.67376
5010238.01665
5010237.38923
5010236.77322
5010236.15142
5010235.5143
5010234.85882
5010234.18075
5010233.49367
5010232.81939
5010232.17957
5010231.58708
5010231.04507
5010230.54861
5010230.08389
5010229.63109
5010229.16859
5010228.68196
5010228.17179
5010227.65035
5010227.13633
5010226.6729
5010226.3224
5010226.12105
5010226.05393
5010226.10488
5010226.31252
5010226.68898
5010227.21457
5010227.86771
5010228.62748
5010229.47633
5010230.399
5010231.38025
5010232.40828
5010233.47538
5010234.57465
5010235.69775
5010236.84041
5010238.00302
5010239.18291
5010240.37187
5010241.54664
5010242.6661
5010243.68897
5010244.52623
5010245.13346
5010245.52629
5010245.72776
5010245.77148
5010245.67806
5010245.47637
5010245.22263
5005365.39912
5005365.01733
5005364.60728
5005364.1776
5005363.71335
5005363.18117
5005362.55687
5005361.82557
5005360.99167
5005360.0815
5005359.14091
5005358.2155
5005357.31311
5005356.38685
5005355.39715
5005354.3364
5005353.23017
5005352.08035
5005350.86705
5005349.6039
5005348.3176
5005347.05472
5005345.8506
5005344.71869
5005343.65365
5005342.63724
5005341.64277
5005340.64479
5005339.63496
5005338.62229
5005337.6165
5005336.63928
5005335.73088
5005334.95568
5005334.4054
5005334.12126
5005334.03217
5005334.15682
5005334.56163
5005335.21888
5005336.09107
5005337.16316
5005338.43165
5005339.88501
5005341.48739
5005343.21586
5005345.05111
5005346.96173
5005348.9301
5005350.96695
5005353.06949
5005355.20497
5005357.30598
5005359.31405
5005361.17777
5005362.82793
5005364.18564
5005365.18028
5005365.84138
5005366.22569
5005366.36193
5005366.29468
5005366.06353
5005365.74609
5000100.08752
5000100.27616
5000100.45201
5000100.64289
5000100.83401
5000100.96671
5000100.95349
5000100.72624
5000100.24441
5000099.56139
5000098.7623
5000097.92421
5000097.01945
5000095.92844
5000094.60217
5000093.07423
5000091.43635
5000089.70139
5000087.86212
5000085.94581
5000083.99927
5000082.10433
5000080.31613
5000078.64811
5000077.07633
5000075.55125
5000074.00608
5000072.3911
5000070.71742
5000069.00715
5000067.25639
5000065.48831
5000063.76205
5000062.14752
5000060.69336
5000059.4455
5000058.45974
5000057.81585
5000057.5147
5000057.45454
5000057.61834
5000058.05367
5000058.76694
5000059.79575
5000061.10025
5000062.68162
5000064.52829
5000066.57044
5000068.83055
5000071.39441
5000074.27064
5000077.37681
5000080.57532
5000083.76945
5000086.86639
5000089.75417
5000092.31928
5000094.47837
5000096.22178
5000097.5761
5000098.5663
5000099.22074
5000099.61168
5000099.87053
4997669.84138
4997671.4612
4997673.01817
4997674.51684
4997675.87043
4997677.13689
4997678.08972
4997678.69303
4997678.93404
4997678.90405
4997678.64138
4997678.13561
4997677.38714
4997676.34549
4997675.00076
4997673.39785
4997671.59574
4997669.63169
4997667.55496
4997665.43379
4997663.35899
4997661.40948
4997659.61807
4997657.9642
4997656.38396
4997654.79635
4997653.12092
4997651.30245
4997649.32563
4997647.19596
4997644.93481
4997642.58533
4997640.20482
4997637.85195
4997635.58019
4997633.45
4997631.51628
4997629.80181
4997628.30588
4997627.04554
4997625.98871
4997625.08698
4997624.35015
4997623.82649
4997623.54934
4997623.52874
4997623.82007
4997624.46162
4997625.49518
4997627.00267
4997629.02909
4997631.56354
4997634.54905
4997637.91167
4997641.54651
4997645.31863
4997649.07101
4997652.66166
4997655.99711
4997659.0305
4997661.73759
4997664.11922
4997666.22032
4997668.10916
4996629.21611
4996632.50624
4996635.58702
4996638.42926
4996640.98208
4996643.17661
4996644.94342
4996646.23489
4996647.12925
4996647.62517
4996647.73531
4996647.53616
4996647.04196
4996646.24304
4996645.14643
4996643.80292
4996642.2493
4996640.52479
4996638.691
4996636.8293
4996635.02382
4996633.333
4996631.7734
4996630.31462
4996628.88927
4996627.41517
4996625.81637
4996624.03694
4996622.0426
4996619.82784
4996617.4168
4996614.86373
4996612.23989
4996609.62042
4996607.07229
4996604.64613
4996602.37397
4996600.26447
4996598.28783
4996596.38708
4996594.54542
4996592.76033
4996591.01303
4996589.32305
4996587.72347
4996586.25794
4996584.98954
4996583.99936
4996583.39128
4996583.17138
4996583.43948
4996584.37338
4996585.97017
4996588.20985
4996591.06792
4996594.44785
4996598.2047
4996602.1842
4996606.25868
4996610.33901
4996614.36313
4996618.28744
4996622.08547
4996625.73563
4995927.73739
4995932.34053
4995936.70619
4995940.72094
4995944.27178
4995947.25936
4995949.6377
4995951.443
4995952.77225
4995953.67322
4995954.08965
4995954.13507
4995953.91234
4995953.40742
4995952.67534
4995951.74546
4995950.63269
4995949.35543
4995947.96143
4995946.51241
4995945.06643
4995943.65871
4995942.30165
4995940.98489
4995939.67838
4995938.3323
4995936.87836
4995935.24112
4995933.35459
4995931.19334
4995928.77797
4995926.17728
4995923.4867
4995920.804
4995918.20792
4995915.74526
4995913.42803
4995911.24035
4995909.14698
4995907.09696
4995905.04896
4995902.99228
4995900.9126
4995898.8282
4995896.75013
4995894.70676
4995892.77084
4995890.97128
4995889.34569
4995888.01729
4995887.13956
4995886.79658
4995886.96441
4995887.76283
4995889.30378
4995891.52268
4995894.30909
4995897.54566
4995901.14844
4995905.04896
4995909.22002
4995913.64593
4995918.27464
4995923.01003
4995520.36637
4995525.58505
4995530.86369
4995535.97847
4995540.71259
4995544.88509
4995548.39995
4995551.25436
4995553.50043
4995555.21834
4995556.47294
4995557.26568
4995557.65288
4995557.78667
4995557.72665
4995557.46201
4995557.00099
4995556.34134
4995555.50116
4995554.52077
4995553.44506
4995552.30658
4995551.12869
4995549.92839
4995548.71459
4995547.46914
4995546.13027
4995544.60447
4995542.79951
4995540.67395
4995538.25071
4995535.61416
4995532.87872
4995530.15388
4995527.51932
4995525.01533
4995522.64524
4995520.38818
4995518.2144
4995516.08838
4995513.9981
4995511.91551
4995509.82184
4995507.73097
4995505.63931
4995503.55995
4995501.545
4995499.58756
4995497.73241
4995496.0794
4995494.66887
4995493.56969
4995492.93984
4995492.77901
4995493.03512
4995493.7346
4995494.86891
4995496.43913
4995498.43335
4995500.76651
4995503.55315
4995506.91223
4995510.8828
4995515.40997
4995478.50016
4995483.47266
4995488.99479
4995494.76667
4995500.46125
4995505.79194
4995510.5559
4995514.64546
4995518.03972
4995520.79055
4995522.99212
4995524.71012
4995525.95502
4995526.80532
4995527.37439
4995527.70114
4995527.80196
4995527.64239
4995527.19429
4995526.50885
4995525.64468
4995524.65642
4995523.59076
4995522.48502
4995521.36535
4995520.22141
4995518.98566
4995517.54476
4995515.7904
4995513.6758
4995511.23133
4995508.5522
4995505.76023
4995502.96356
4995500.23453
4995497.60828
4995495.09203
4995492.68038
4995490.3656
4995488.13323
4995486.00912
4995483.94564
4995481.9654
4995480.05954
4995478.18938
4995476.35938
4995474.57031
4995472.91352
4995471.38269
4995470.00899
4995468.80148
4995467.79581
4995467.02183
4995466.4731
4995466.16651
4995466.01004
4995465.89258
4995465.84186
4995465.91221
4995466.26213
4995467.16073
4995468.6405
4995470.98787
4995474.29589
4995707.84461
4995711.33976
4995715.922
4995721.35824
4995727.31182
4995733.43191
4995739.40355
4995744.97233
4995749.9607
4995754.2799
4995757.93462
4995760.99307
4995763.50697
4995765.4983
4995767.00588
4995768.08635
4995768.76373
4995769.04759
4995768.98276
4995768.59653
4995767.96809
4995767.20512
4995766.36424
4995765.47293
4995764.53802
4995763.52885
4995762.36021
4995760.91316
4995759.09314
4995756.87076
4995754.29213
4995751.45998
4995748.49729
4995745.51479
4995742.59323
4995739.78029
4995737.09734
4995734.5543
4995732.15509
4995729.88956
4995727.79087
4995725.78359
4995723.9223
4995722.14262
4995720.44025
4995718.83573
4995717.35253
4995716.01366
4995714.85026
4995713.86471
4995713.08583
4995712.54347
4995712.17332
4995711.85687
4995711.46649
4995710.91868
4995710.14243
4995709.08948
4995707.76216
4995706.30049
4995705.00255
4995704.25343
4995704.36536
4995705.50006
4996075.40353
4996075.6959
4996077.46486
4996080.65706
4996085.06976
4996090.49535
4996096.62483
4996103.13048
4996109.68904
4996116.01031
4996121.88569
4996127.21152
4996131.94805
4996136.03957
4996139.42458
4996142.08898
4996144.06843
4996145.38609
4996146.05796
4996146.26994
4996146.20484
4996145.9371
4996145.54759
4996145.0623
4996144.44144
4996143.61116
4996142.47664
4996140.9461
4996138.96253
4996136.52261
4996133.68765
4996130.57034
4996127.30672
4996124.02686
4996120.83357
4996117.79315
4996114.93937
4996112.28663
4996109.83027
4996107.54843
4996105.45337
4996103.47016
4996101.64184
4996099.87265
4996098.19212
4996096.60197
4996095.13188
4996093.84808
4996092.83856
4996092.06695
4996091.64135
4996091.57344
4996091.76692
4996092.08975
4996092.33325
4996092.31494
4996091.79097
4996090.58762
4996088.69369
4996086.19456
4996083.30334
4996080.34772
4996077.78925
4996076.06038
4996384.63869
4996381.90579
4996380.32565
4996379.65656
4996380.31719
4996382.59548
4996386.31606
4996391.36584
4996397.54637
4996404.52115
4996411.90126
4996419.30746
4996426.42189
4996432.98445
4996438.77449
4996443.62305
4996447.45473
4996450.30732
4996452.2915
4996453.5708
4996454.33247
4996454.75836
4996454.96162
4996454.97505
4996454.72451
4996454.07778
4996452.94439
4996451.28277
4996449.08941
4996446.39296
4996443.26646
4996439.83084
4996436.23909
4996432.64547
4996429.17517
4996425.90798
4996422.88047
4996420.10162
4996417.55394
4996415.21228
4996413.08293
4996411.09771
4996409.28633
4996407.54294
4996405.89191
4996404.30244
4996402.79543
4996401.46179
4996400.46216
4996399.80949
4996399.60285
4996399.82922
4996400.48773
4996401.54249
4996402.77172
4996403.89548
4996404.49661
4996404.46732
4996403.64167
4996401.78873
4996399.0729
4996395.71024
4996391.97053
4996388.15405
4996589.85682
4996585.2799
4996581.09987
4996577.69951
4996575.45415
4996574.36442
4996574.53894
4996576.47758
4996580.36932
4996586.05462
4996593.22885
4996601.39553
4996609.983
4996618.45067
4996626.34183
4996633.30286
4996639.11266
4996643.7297
4996647.29171
4996650.00818
4996652.04716
4996653.49332
4996654.42132
4996654.88351
4996654.97597
4996654.61489
4996653.58514
4996651.87081
4996649.51896
4996646.60613
4996643.2368
4996639.54909
4996635.70954
4996631.8857
4996628.21238
4996624.77179
4996621.59646
4996618.69067
4996616.0362
4996613.61845
4996611.4515
4996609.49277
4996607.76124
4996606.16009
4996604.69327
4996603.3033
4996602.01059
4996600.87575
4996600.04828
4996599.57478
4996599.48147
4996599.80888
4996600.63756
4996601.93398
4996603.4685
4996605.02969
4996606.39609
4996607.17156
4996607.2205
4996606.46552
4996604.71364
4996602.02073
4996598.52956
4996594.40132
4996747.03438
4996742.36223
4996737.50246
4996732.78393
4996728.5385
4996725.19543
4996723.23379
4996722.55799
4996723.34693
4996726.28514
4996731.46775
4996738.55875
4996746.97355
4996756.00384
4996764.97099
4996773.3337
4996780.73872
4996787.0326
4996792.25043
4996796.53331
4996800.02171
4996802.78326
4996804.79867
4996805.9897
4996806.46661
4996806.42889
4996805.75707
4996804.23074
4996801.88522
4996798.8482
4996795.29443
4996791.41223
4996787.39375
4996783.41871
4996779.62794
4996776.10522
4996772.87975
4996769.94891
4996767.2871
4996764.87179
4996762.70859
4996760.79297
4996759.12563
4996757.64261
4996756.34515
4996755.17578
4996754.15771
4996753.31966
4996752.76207
4996752.5572
4996752.63563
4996753.07946
4996753.99792
4996755.30486
4996756.7745
4996758.20898
4996759.46788
4996760.36406
4996760.65998
4996760.3588
4996759.38095
4996757.47933
4996754.73379
4996751.22052
4996883.57792
4996879.56299
4996875.13524
4996870.46122
4996865.75638
4996861.37716
4996857.77953
4996855.4409
4996854.5337
4996854.87839
4996857.00776
4996861.38186
4996867.77126
4996875.60162
4996884.15181
4996892.76653
4996900.97006
4996908.46862
4996915.12117
4996920.90143
4996925.84508
4996929.98726
4996933.30034
4996935.66303
4996936.93979
4996937.39319
4996937.24138
4996936.258
4996934.25666
4996931.32263
4996927.69693
4996923.66207
4996919.47371
4996915.34589
4996911.44243
4996907.86472
4996904.64922
4996901.78468
4996899.2277
4996896.92922
4996894.85693
4996893.0322
4996891.42923
4996890.02179
4996888.82649
4996887.81052
4996887.00302
4996886.42704
4996886.19544
4996886.34359
4996886.76424
4996887.58772
4996888.83263
4996890.37417
4996891.94334
4996893.31018
4996894.3048
4996894.82344
4996894.85997
4996894.50901
4996893.70631
4996892.12194
4996889.88039
4996887.04631
4996987.94677
4996984.56608
4996980.81909
4996976.75038
4996972.47395
4996968.19085
4996964.17381
4996960.84298
4996958.6422
4996957.68077
4996957.81123
4996959.2235
4996962.56601
4996967.8246
4996974.55617
4996982.1728
4996990.13413
4996998.00381
4997005.45607
4997012.28466
4997018.38808
4997023.72942
4997028.25912
4997031.85674
4997034.35674
4997035.69863
4997036.19758
4997035.97579
4997034.76884
4997032.3692
4997028.94972
4997024.88957
4997020.56354
4997016.26222
4997012.19576
4997008.50001
4997005.2348
4997002.39435
4996999.93233
4996997.79881
4996995.91255
4996994.28599
4996992.85117
4996991.59879
4996990.54239
4996989.67127
4996989.03597
4996988.7123
4996988.76234
4996989.23526
4996990.11911
4996991.46083
4996993.20148
4996995.17655
4996997.07273
4996998.59264
4996999.49233
4996999.6875
4996999.33585
4996998.61026
4996997.51828
4996995.7449
4996993.48244
4996990.91093
4997055.51337
4997052.57695
4997049.44048
4997046.07004
4997042.49196
4997038.8194
4997035.1767
4997031.73832
4997028.88968
4997027.00244
4997026.12237
4997026.05965
4997027.0327
4997029.64896
4997034.0336
4997039.90359
4997046.78704
4997054.18429
4997061.64746
4997068.8415
4997075.55557
4997081.67879
4997087.12482
4997091.76239
4997095.40971
4997097.92102
4997099.31926
4997099.84592
4997099.55158
4997098.12962
4997095.32782
4997091.51554
4997087.20983
4997082.82138
4997078.62251
4997074.78307
4997071.39081
4997068.46195
4997065.96944
4997063.91131
4997062.18835
4997060.7783
4997059.56592
4997058.53152
4997057.64919
4997056.91403
4997056.40115
4997056.2016
4997056.37134
4997057.01205
4997058.19779
4997059.88222
4997061.96219
4997064.23651
4997066.38903
4997068.06824
4997068.95751
4997069.02125
4997068.44111
4997067.35291
4997065.80309
4997063.57498
4997060.95823
4997058.2783
4997098.3572
4997095.75325
4997093.16675
4997090.48072
4997087.63499
4997084.67312
4997081.64001
4997078.54561
4997075.61825
4997073.25977
4997071.74952
4997071.0652
4997071.06495
4997072.05984
4997074.5639
4997078.65055
4997084.08759
4997090.45982
4997097.3101
4997104.2507
4997111.01105
4997117.43345
4997123.40893
4997128.79435
4997133.36814
4997136.91103
4997139.3289
4997140.6149
4997140.97394
4997140.5557
4997138.74757
4997135.53691
4997131.51913
4997127.24749
4997123.07297
4997119.19186
4997115.70819
4997112.6596
4997110.03915
4997107.9007
4997106.18855
4997104.8509
4997103.75048
4997102.8476
4997102.06507
4997101.3858
4997100.8663
4997100.61789
4997100.70577
4997101.27036
4997102.46325
4997104.17537
4997106.30457
4997108.61473
4997110.80152
4997112.50744
4997113.38974
4997113.43276
4997112.78679
4997111.50914
4997109.59567
4997106.94533
4997103.94913
4997101.06369
4997123.32116
4997120.98949
4997118.86865
4997116.79586
4997114.62825
4997112.31233
4997109.82476
4997107.1236
4997104.31471
4997101.75306
4997099.86014
4997098.82302
4997098.47212
4997098.83121
4997100.29874
4997103.12708
4997107.27599
4997112.50239
4997118.45045
4997124.76227
4997131.16596
4997137.48907
4997143.62001
4997149.41115
4997154.61067
4997158.92629
4997162.12924
4997164.11797
4997165.00289
4997165.04266
4997164.23087
4997161.89073
4997158.4253
4997154.48921
4997150.52605
4997146.77023
4997143.33428
4997140.25971
4997137.54361
4997135.24396
4997133.38923
4997131.92676
4997130.73679
4997129.77299
4997128.93057
4997128.17937
4997127.53706
4997127.10275
4997127.0121
4997127.38668
4997128.36581
4997129.89332
4997131.89001
4997134.11055
4997136.2376
4997137.92665
4997138.84211
4997138.94282
4997138.3554
4997137.07833
4997135.00976
4997132.14086
4997128.94693
4997125.95968
4997131.55299
4997129.38103
4997127.53307
4997125.85494
4997124.17006
4997122.31792
4997120.21494
4997117.78506
4997115.07182
4997112.39126
4997110.18328
4997108.79821
4997108.22949
4997108.31824
4997109.30484
4997111.5085
4997114.95345
4997119.49962
4997124.87908
4997130.78138
4997136.94371
4997143.18207
4997149.36864
4997155.3461
4997160.85477
4997165.56198
4997169.185
4997171.57028
4997172.69573
4997172.94523
4997172.4776
4997170.73553
4997167.73309
4997164.07959
4997160.29654
4997156.66259
4997153.30294
4997150.25663
4997147.51048
4997145.09265
4997143.06673
4997141.40102
4997140.0107
4997138.86127
4997137.85126
4997136.95876
4997136.18334
4997135.61696
4997135.44769
4997135.73363
4997136.57058
4997137.99345
4997139.90233
4997142.08877
4997144.21682
4997145.92951
4997146.91768
4997147.09238
4997146.59249
4997145.40454
4997143.31829
4997140.37954
4997137.13391
4997134.131
4997129.26212
4997127.1887
4997125.50288
4997124.08498
4997122.73211
4997121.20966
4997119.35653
4997117.09164
4997114.43619
4997111.67546
4997109.2164
4997107.47956
4997106.67081
4997106.55492
4997107.20011
4997108.93134
4997111.77193
4997115.62401
4997120.30139
4997125.5742
4997131.22153
4997137.08708
4997143.05129
4997148.95353
4997154.53315
4997159.45224
4997163.38485
4997166.10607
4997167.55383
4997168.02831
4997167.71457
4997166.53214
4997164.133
4997160.92827
4997157.46714
4997154.07278
4997150.88834
4997147.97319
4997145.31992
4997142.91592
4997140.8274
4997139.04703
4997137.52617
4997136.24355
4997135.11836
4997134.13514
4997133.29107
4997132.68479
4997132.49126
4997132.71513
4997133.45043
4997134.80797
4997136.69816
4997138.89481
4997141.05637
4997142.8356
4997143.9286
4997144.21615
4997143.85041
4997142.80991
4997140.79002
4997137.89327
4997134.70667
4997131.76709
4997105.22043
4997103.24465
4997101.69381
4997100.47292
4997099.36504
4997098.07596
4997096.36228
4997094.12783
4997091.38017
4997088.3781
4997085.51417
4997083.23827
4997081.85481
4997081.27709
4997081.39074
4997082.41259
4997084.48879
4997087.52884
4997091.38389
4997095.88133
4997100.85745
4997106.18909
4997111.76713
4997117.43681
4997122.94877
4997127.96646
4997132.13858
4997135.1932
4997137.02395
4997137.80184
4997137.81504
4997137.14046
4997135.39358
4997132.75564
4997129.72615
4997126.67618
4997123.78722
4997121.13036
4997118.69853
4997116.45052
4997114.43136
4997112.65663
4997111.10713
4997109.78109
4997108.62441
4997107.63929
4997106.83111
4997106.31217
4997106.20873
4997106.49901
4997107.28125
4997108.71598
4997110.72265
4997113.07624
4997115.41294
4997117.37868
4997118.69179
4997119.17657
4997119.02052
4997118.2268
4997116.35971
4997113.57305
4997110.49395
4997107.64492
4997053.46688
4997051.56177
4997050.12141
4997049.07793
4997048.21629
4997047.17881
4997045.64182
4997043.45321
4997040.58722
4997037.25757
4997033.85029
4997030.84181
4997028.62914
4997027.30286
4997026.74745
4997026.95043
4997028.10798
4997030.28095
4997033.2981
4997037.00557
4997041.26403
4997045.96397
4997051.00425
4997056.24994
4997061.4825
4997066.39521
4997070.65121
4997073.95696
4997076.15417
4997077.33561
4997077.77183
4997077.57735
4997076.52493
4997074.58025
4997072.13255
4997069.56587
4997067.10406
4997064.8332
4997062.74638
4997060.78245
4997058.95871
4997057.29504
4997055.79485
4997054.48484
4997053.34682
4997052.41485
4997051.72078
4997051.39223
4997051.4663
4997051.93721
4997052.93141
4997054.58231
4997056.82306
4997059.42202
4997062.00754
4997064.20916
4997065.75157
4997066.4704
4997066.52688
4997065.96069
4997064.26492
4997061.59449
4997058.61231
4997055.83502
4996990.2657
4996988.34345
4996986.92561
4996985.97217
4996985.28105
4996984.46294
4996983.13848
4996981.10908
4996978.31166
4996974.90465
4996971.25976
4996967.86405
4996965.1601
4996963.35166
4996962.49159
4996962.36876
4996963.05543
4996964.78093
4996967.36491
4996970.63618
4996974.44077
4996978.65549
4996983.17338
4996987.87596
4996992.58905
4996997.07228
4997001.04758
4997004.23204
4997006.44988
4997007.76909
4997008.37322
4997008.45008
4997007.86907
4997006.46403
4997004.53285
4997002.42869
4997000.39383
4996998.52753
4996996.82009
4996995.19751
4996993.64964
4996992.17779
4996990.79567
4996989.55629
4996988.47848
4996987.63491
4996987.09864
4996986.96225
4996987.22552
4996987.92682
4996989.17283
4996991.05381
4996993.48648
4996996.21053
4996998.8606
4997001.07218
4997002.58986
4997003.30868
4997003.38577
4997002.8383
4997001.14523
4996998.45143
4996995.45698
4996992.66256
4996942.12808
4996940.22306
4996938.86714
4996938.04118
4996937.5659
4996937.04467
4996936.06
4996934.3732
4996931.89597
4996928.73775
4996925.23953
4996921.87702
4996919.10907
4996917.21617
4996916.36488
4996916.27454
4996916.92319
4996918.56338
4996921.05198
4996924.22765
4996927.90266
4996931.91155
4996936.1075
4996940.3534
4996944.49613
4996948.35585
4996951.72607
4996954.37947
4996956.18555
4996957.22164
4996957.68592
4996957.76912
4996957.37222
4996956.31121
4996954.78578
4996953.09498
4996951.46683
4996949.99684
4996948.66712
4996947.39524
4996946.14962
4996944.90774
4996943.68588
4996942.55236
4996941.55245
4996940.78672
4996940.35132
4996940.30008
4996940.64334
4996941.4706
4996942.8447
4996944.8
4996947.22972
4996949.84636
4996952.29323
4996954.23265
4996955.46194
4996955.94424
4996955.86912
4996955.14516
4996953.27933
4996950.449
4996947.37293
4996944.53916
4996916.58329
4996914.81165
4996913.61219
4996912.9797
4996912.75566
4996912.54921
4996911.91471
4996910.58129
4996908.45548
4996905.61773
4996902.3661
4996899.13353
4996896.37548
4996894.44571
4996893.59465
4996893.51243
4996894.13274
4996895.70074
4996898.11696
4996901.26801
4996904.95738
4996908.97505
4996913.11042
4996917.1686
4996920.97039
4996924.35128
4996927.15146
4996929.21826
4996930.49128
4996931.06379
4996931.21554
4996931.15195
4996930.7542
4996929.87953
4996928.6465
4996927.29064
4996926.0068
4996924.87465
4996923.86914
4996922.90744
4996921.94609
4996920.94216
4996919.90636
4996918.90471
4996917.99091
4996917.27379
4996916.85248
4996916.78905
4996917.11534
4996917.94761
4996919.32797
4996921.22529
4996923.52241
4996925.92751
4996928.09241
4996929.70608
4996930.61658
4996930.86924
4996930.63024
4996929.70162
4996927.67042
4996924.75664
4996921.66945
4996918.89144
4996902.09175
4996900.50774
4996899.48366
4996899.03152
4996899.00531
4996899.02589
4996898.63615
4996897.54153
4996895.65479
4996893.04324
4996889.96348
4996886.79581
4996883.97985
4996881.93397
4996880.97054
4996880.79291
4996881.29453
4996882.69918
4996884.96812
4996888.04335
4996891.74877
4996895.84724
4996900.06874
4996904.14912
4996907.85579
4996911.00194
4996913.4412
4996915.06998
4996915.87067
4996916.04495
4996915.83854
4996915.55929
4996915.05799
4996914.24493
4996913.18698
4996912.06376
4996911.03164
4996910.15219
4996909.39693
4996908.68869
4996907.97751
4996907.20318
4996906.36443
4996905.51178
4996904.69502
4996904.01994
4996903.5869
4996903.49129
4996903.78092
4996904.58209
4996905.93317
4996907.7461
4996909.90462
4996912.12841
4996914.07489
4996915.45296
4996916.14377
4996916.2536
4996915.91529
4996914.85094
4996912.74108
4996909.84833
4996906.84871
4996904.21671
4996887.55253
4996886.17549
4996885.32923
4996885.03667
4996885.16112
4996885.31553
4996885.07178
4996884.13385
4996882.38879
4996879.91096
4996876.926
4996873.76701
4996870.85139
4996868.63269
4996867.46612
4996867.13146
4996867.45635
4996868.62354
4996870.67625
4996873.61156
4996877.28982
4996881.46495
4996885.82023
4996890.02378
4996893.77767
4996896.85181
4996899.08237
4996900.366
4996900.78655
4996900.59019
4996899.99435
4996899.46675
4996898.78667
4996897.93572
4996896.96368
4996895.99849
4996895.15857
4996894.48732
4996893.95337
4996893.48553
4996893.02806
4996892.50558
4996891.89932
4996891.23536
4996890.55156
4996889.94526
4996889.52093
4996889.40821
4996889.66992
4996890.43976
4996891.75848
4996893.49421
4996895.53295
4996897.61494
4996899.40418
4996900.62227
4996901.16879
4996901.19182
4996900.8001
4996899.65899
4996897.53481
4996894.73232
4996891.88755
4996889.45521
4996866.13173
4996864.97413
4996864.31973
4996864.16943
4996864.40901
4996864.64964
4996864.48391
4996863.64109
4996861.96299
4996859.53762
4996856.57675
4996853.3831
4996850.34729
4996847.91657
4996846.47432
4996845.94121
4996846.04224
4996846.90023
4996848.66703
4996851.38731
4996854.96826
4996859.17233
4996863.65165
4996868.01634
4996871.90614
4996875.03452
4996877.18068
4996878.20824
4996878.33931
4996877.77386
4996876.80453
4996875.94248
4996875.02537
4996874.0632
4996873.10302
4996872.23611
4996871.54766
4996871.06242
4996870.74361
4996870.52294
4996870.33752
4996870.09787
4996869.76515
4996869.3356
4996868.82852
4996868.32895
4996867.94636
4996867.83868
4996868.08745
4996868.83519
4996870.12784
4996871.80639
4996873.75581
4996875.73814
4996877.4264
4996878.54962
4996879.0145
4996878.99266
4996878.58589
4996877.42005
4996875.32547
4996872.65044
4996869.99909
4996867.79448
4996834.8099
4996833.85866
4996833.38761
4996833.35812
4996833.67918
4996833.9723
4996833.83891
4996833.03894
4996831.37556
4996828.94884
4996825.97168
4996822.73365
4996819.59208
4996816.95213
4996815.21451
4996814.44857
4996814.29255
4996814.79431
4996816.20961
4996818.63623
4996822.03003
4996826.18115
4996830.72923
4996835.23969
4996839.2974
4996842.55283
4996844.70973
4996845.6348
4996845.59086
4996844.73071
4996843.44327
4996842.16194
4996840.9441
4996839.80296
4996838.7827
4996837.95265
4996837.37173
4996837.04567
4996836.93038
4996836.95419
4996837.04231
4996837.09453
4996837.05277
4996836.88471
4996836.58774
4996836.22775
4996835.91763
4996835.83541
4996836.08734
4996836.82742
4996838.10535
4996839.75604
4996841.66183
4996843.59958
4996845.24962
4996846.34549
4996846.79553
4996846.77459
4996846.39252
4996845.24881
4996843.21534
4996840.68096
4996838.22931
4996836.24733
4996794.51803
4996793.72979
4996793.39984
4996793.45546
4996793.82295
4996794.14017
4996794.0111
4996793.22184
4996791.55847
4996789.12563
4996786.14239
4996782.89255
4996779.69408
4996776.89689
4996774.90374
4996773.86024
4996773.44401
4996773.60204
4996774.60621
4996776.67801
4996779.80686
4996783.82132
4996788.36721
4996792.98099
4996797.20249
4996800.61696
4996802.85183
4996803.77636
4996803.66732
4996802.65469
4996801.10957
4996799.42634
4996797.83287
4996796.43005
4996795.27518
4996794.41884
4996793.89838
4996793.70131
4996793.75245
4996793.9945
4996794.35138
4996794.68127
4996794.91
4996794.99923
4996794.92914
4996794.73322
4996794.5221
4996794.48398
4996794.75494
4996795.50494
4996796.78512
4996798.44038
4996800.35086
4996802.29985
4996803.97048
4996805.09754
4996805.59058
4996805.61107
4996805.28877
4996804.20086
4996802.2435
4996799.84345
4996797.57003
4996795.77521
4996745.95272
4996745.27106
4996745.02284
4996745.12291
4996745.50906
4996745.82549
4996745.68739
4996744.89912
4996743.25003
4996740.84345
4996737.90344
4996734.70714
4996731.52934
4996728.65994
4996726.47116
4996725.15393
4996724.48979
4996724.32438
4996724.89987
4996726.57711
4996729.39046
4996733.2049
4996737.68899
4996742.36845
4996746.74771
4996750.33765
4996752.68072
4996753.65489
4996753.56423
4996752.50264
4996750.76379
4996748.7258
4996746.7043
4996744.93715
4996743.55502
4996742.60591
4996742.10726
4996741.98314
4996742.16357
4996742.61445
4996743.21268
4996743.80556
4996744.30259
4996744.63221
4996744.7765
4996744.77212
4996744.69639
4996744.72824
4996745.03774
4996745.81687
4996747.1173
4996748.8041
4996750.75789
4996752.76072
4996754.49388
4996755.69005
4996756.25944
4996756.34158
4996756.09617
4996755.07293
4996753.183
4996750.88946