/*--------------------------------*- C++ -*----------------------------------*\
  =========                 |
  \\      /  F ield         | OpenFOAM: The Open Source CFD Toolbox
   \\    /   O peration     | Website:  https://openfoam.org
    \\  /    A nd           | Version:  6
     \\/     M anipulation  |
\*---------------------------------------------------------------------------*/
FoamFile
{
    version     2.0;
    format      ascii;
    class       volScalarField;
    location    "2e-08";
    object      rho;
}
// * * * * * * * * * * * * * * * * * * * * * * * * * * * * * * * * * * * * * //

dimensions      [1 -3 0 0 0 0 0];

internalField   nonuniform List<scalar> 
12288
(
27.9524007724
27.9524003028
27.9523998769
27.9523994817
27.95239909
27.9523986762
27.9523982267
27.9523977514
27.9523972818
27.9523968556
27.9523965037
27.9523962426
27.9523960779
27.9523960004
27.9523959733
27.9523959701
27.9523959872
27.9523960235
27.9523960888
27.9523961942
27.9523963489
27.9523965652
27.9523968515
27.9523972031
27.9523975905
27.9523979638
27.9523982578
27.9523984
27.9523984085
27.9523982989
27.9523980613
27.9523977657
27.9523974749
27.9523972362
27.9523970889
27.9523970425
27.9523971069
27.9523972752
27.9523975108
27.9523977892
27.9523980848
27.9523983819
27.952398661
27.9523988958
27.9523990856
27.9523992478
27.9523993966
27.9523995403
27.9523997007
27.9523999172
27.9524001999
27.9524005242
27.9524009465
27.9524014808
27.9524020905
27.9524026839
27.9524031536
27.9524033982
27.9524034278
27.9524032452
27.9524028442
27.9524023329
27.9524018035
27.9524012794
27.9775179721
27.977516898
27.9775157559
27.9775145321
27.977513193
27.9775117102
27.9775100784
27.9775083278
27.9775065179
27.9775047197
27.977502999
27.977501404
27.9774999538
27.9774986326
27.9774974002
27.9774962142
27.9774950456
27.9774938877
27.977492753
27.9774916739
27.977490689
27.9774898344
27.9774891356
27.9774885979
27.9774881992
27.9774878852
27.9774875624
27.9774871268
27.977486521
27.9774857498
27.9774848403
27.9774838744
27.9774829944
27.977482331
27.9774819731
27.9774818876
27.9774821083
27.9774827077
27.9774836237
27.9774848032
27.9774861974
27.9774877601
27.9774894481
27.977491221
27.9774930564
27.9774949452
27.977496882
27.9774988664
27.977500909
27.9775030345
27.9775052618
27.9775075699
27.9775099332
27.9775123607
27.9775148029
27.9775170669
27.9775189359
27.9775202738
27.9775210432
27.9775212883
27.9775211028
27.9775205736
27.9775198318
27.9775189619
27.9770000256
27.9769986754
27.9769971798
27.976995517
27.9769936377
27.9769914958
27.9769890842
27.9769864438
27.9769836465
27.9769807771
27.9769779263
27.976975178
27.9769725776
27.9769700988
27.9769676692
27.9769652196
27.9769627108
27.9769601306
27.9769574614
27.9769547572
27.9769521038
27.9769495857
27.9769472528
27.9769451172
27.9769431586
27.976941322
27.9769395294
27.9769376962
27.9769357665
27.976933744
27.9769316787
27.9769296469
27.9769278221
27.9769264504
27.9769256733
27.9769254209
27.9769256393
27.9769264827
27.9769279899
27.9769300837
27.9769326792
27.9769356928
27.9769390541
27.9769427025
27.9769465773
27.9769506322
27.9769548369
27.9769591655
27.9769635859
27.9769680826
27.9769726583
27.9769773042
27.9769819889
27.9769866199
27.9769910352
27.9769950804
27.9769983998
27.9770008129
27.9770023776
27.9770031823
27.9770033593
27.9770029966
27.9770022036
27.9770011994
27.957513213
27.9575116898
27.9575100528
27.957508337
27.9575064859
27.9575043682
27.9575018896
27.9574989921
27.9574956922
27.9574920915
27.9574883707
27.9574847137
27.9574811542
27.9574775053
27.9574736092
27.9574694352
27.9574650861
27.9574605679
27.9574557982
27.9574508324
27.9574457768
27.9574408149
27.9574360848
27.9574316381
27.9574274533
27.9574234586
27.9574195486
27.9574156232
27.9574116513
27.9574076691
27.9574037134
27.9573998692
27.9573962984
27.9573932587
27.9573911118
27.9573900145
27.9573896785
27.9573901889
27.9573918082
27.9573944199
27.9573978773
27.9574021199
27.9574071336
27.9574128729
27.9574191939
27.9574260066
27.9574332374
27.9574407611
27.9574485078
27.9574565224
27.9574647953
27.9574731974
27.9574814614
27.9574893582
27.957496688
27.9575031809
27.9575085273
27.9575124419
27.9575150364
27.9575165375
27.9575170644
27.9575167898
27.9575158653
27.9575145976
27.936671179
27.9366718891
27.9366725499
27.9366732706
27.9366739945
27.9366745001
27.936674433
27.9366735263
27.9366716207
27.9366689178
27.9366657519
27.9366624397
27.9366588775
27.9366545853
27.9366493655
27.9366433527
27.9366369152
27.936630098
27.9366228666
27.9366153315
27.9366076792
27.9366002327
27.9365932076
27.9365866554
27.9365804818
27.936574492
27.9365684214
27.9365620728
27.9365554937
27.9365487731
27.9365418919
27.9365349402
27.9365281546
27.9365218148
27.9365161111
27.9365112201
27.9365073613
27.936504851
27.9365036878
27.9365034743
27.9365041489
27.9365058897
27.9365087184
27.93651279
27.9365179411
27.93652418
27.9365314668
27.9365395175
27.9365484186
27.9365585151
27.9365698421
27.9365820703
27.9365946518
27.9366072114
27.9366193893
27.936630744
27.9366408275
27.9366493088
27.9366561484
27.9366614518
27.9366653193
27.9366678639
27.9366693713
27.9366703581
27.9270973465
27.927103682
27.927109776
27.9271156447
27.9271209418
27.9271259157
27.9271296576
27.9271320232
27.9271329637
27.9271328332
27.9271317817
27.9271297763
27.9271268219
27.9271227156
27.9271174155
27.9271110987
27.9271039982
27.9270962577
27.9270880719
27.9270797119
27.9270715378
27.9270638602
27.927056807
27.9270502961
27.9270440745
27.927037822
27.92703122
27.927024051
27.9270162574
27.9270078638
27.9269989558
27.9269897044
27.9269803367
27.9269710842
27.9269621555
27.9269537868
27.9269461929
27.9269394629
27.9269335968
27.9269286664
27.9269245418
27.9269210259
27.9269181572
27.9269161268
27.9269150576
27.926915002
27.9269161796
27.9269187321
27.9269228269
27.9269287886
27.9269367933
27.9269467949
27.9269585674
27.9269718219
27.926986147
27.9270010103
27.9270157911
27.9270299274
27.9270430496
27.9270549739
27.9270656054
27.9270749477
27.9270831794
27.9270905717
27.9230003638
27.9230132743
27.9230253654
27.9230365236
27.9230465488
27.923055174
27.9230621291
27.9230672134
27.9230707271
27.9230726654
27.9230730889
27.9230722977
27.9230703414
27.923067185
27.9230628542
27.9230575478
27.9230514097
27.923044595
27.9230373498
27.923029998
27.9230228729
27.9230162049
27.9230100578
27.9230043097
27.9229986913
27.922992875
27.9229865595
27.9229795263
27.9229716445
27.922962898
27.9229533862
27.9229433244
27.9229329923
27.9229226831
27.9229126581
27.9229031152
27.9228941806
27.9228858893
27.9228781234
27.9228706586
27.9228634325
27.9228564323
27.9228495775
27.9228429429
27.9228366597
27.9228309024
27.922825923
27.9228220422
27.9228196712
27.9228188235
27.9228199064
27.9228236194
27.922829942
27.9228388024
27.9228501029
27.92286346
27.9228783
27.9228940111
27.9229100854
27.9229261679
27.9229420122
27.9229574473
27.9229723718
27.9229867043
27.9202328719
27.9202509597
27.9202681099
27.9202838813
27.9202978333
27.9203095757
27.9203189249
27.920326019
27.9203312399
27.9203347759
27.9203363954
27.9203365562
27.9203356665
27.920333662
27.9203307586
27.9203270711
27.9203226598
27.9203175987
27.9203120797
27.9203063499
27.9203006407
27.9202950908
27.9202897468
27.9202845628
27.9202794146
27.9202741012
27.9202683524
27.9202618741
27.9202544116
27.9202458718
27.920236341
27.9202260917
27.9202154975
27.9202049394
27.9201947247
27.9201850368
27.9201759239
27.9201673246
27.9201591001
27.9201510474
27.9201430021
27.9201349223
27.9201267476
27.9201185489
27.9201103682
27.9201023182
27.9200946917
27.9200876035
27.9200811987
27.9200759704
27.9200725277
27.9200711876
27.9200718676
27.9200750505
27.9200811704
27.9200899723
27.9201010194
27.9201138414
27.9201281001
27.9201435176
27.9201599822
27.9201774306
27.9201956575
27.9202142871
27.9186207335
27.9186412888
27.9186620667
27.9186821909
27.9187008124
27.9187172194
27.9187310335
27.918742245
27.9187510626
27.9187578027
27.9187627145
27.9187658003
27.9187672928
27.9187677969
27.9187675311
27.9187664551
27.918764608
27.9187619806
27.9187586469
27.9187547677
27.9187505215
27.9187460361
27.9187414008
27.9187366764
27.9187318917
27.9187269716
27.9187216737
27.9187156337
27.9187084934
27.9187000958
27.9186905359
27.9186801478
27.9186693804
27.9186586619
27.9186483033
27.9186384621
27.918629151
27.9186202873
27.9186117529
27.9186034052
27.9185951959
27.9185870104
27.9185787714
27.9185705351
27.9185622852
27.9185540749
27.9185461166
27.9185383808
27.9185310389
27.9185244912
27.9185188988
27.9185145402
27.9185120543
27.9185114248
27.9185124434
27.9185152358
27.9185197697
27.9185260403
27.918533991
27.9185432736
27.9185543334
27.9185676337
27.9185833262
27.9186011938
27.9184512974
27.9184709244
27.9184926967
27.9185154348
27.9185378526
27.9185588233
27.9185775506
27.9185936138
27.9186069353
27.9186177238
27.918626351
27.918633071
27.9186379238
27.9186412275
27.9186434309
27.9186446825
27.9186450489
27.9186443923
27.9186426058
27.9186398925
27.9186364809
27.9186325862
27.91862839
27.918624034
27.9186196157
27.918615092
27.918610199
27.9186044944
27.9185975559
27.918589204
27.9185795624
27.9185690084
27.9185580216
27.9185470256
27.9185363025
27.9185259882
27.9185161091
27.9185066421
27.9184975547
27.9184887877
27.9184804444
27.9184723284
27.9184645299
27.9184570168
27.9184496335
27.9184423977
27.9184353129
27.9184287485
27.9184226706
27.9184172059
27.918412391
27.9184083735
27.9184052866
27.9184031108
27.9184019117
27.9184013195
27.9184008993
27.918400773
27.9184011497
27.9184026452
27.9184063038
27.9184122322
27.9184215673
27.918434676
27.9193523408
27.9193661959
27.9193843226
27.9194057953
27.9194292836
27.9194534031
27.9194769126
27.9194988128
27.9195184094
27.9195353589
27.9195496855
27.9195616621
27.9195714931
27.9195792674
27.9195851433
27.919589347
27.9195919715
27.919593064
27.9195927872
27.9195912451
27.9195887553
27.9195857391
27.9195824187
27.9195788982
27.919575201
27.9195712055
27.919566578
27.9195608525
27.9195536595
27.9195448866
27.9195347193
27.9195235648
27.9195119082
27.9195001839
27.9194887067
27.9194776607
27.9194671266
27.9194571409
27.9194477178
27.9194388164
27.9194305696
27.9194226684
27.9194153398
27.9194083267
27.9194016103
27.9193952714
27.9193894015
27.9193840923
27.9193794731
27.9193755488
27.91937243
27.919370242
27.9193687414
27.9193674652
27.9193659122
27.9193637585
27.9193607255
27.9193566243
27.9193514626
27.9193457801
27.9193407564
27.9193378957
27.919338434
27.919343012
27.9208005464
27.9208018208
27.9208089403
27.9208216574
27.9208391771
27.9208606639
27.9208848868
27.9209105494
27.920936378
27.920961234
27.9209843052
27.9210051947
27.9210237551
27.9210397722
27.9210530107
27.9210634237
27.9210711585
27.9210763033
27.9210789089
27.9210797175
27.9210794377
27.9210783575
27.9210768035
27.9210748721
27.9210724044
27.9210691109
27.9210646189
27.9210585673
27.9210507332
27.9210411063
27.9210299313
27.9210176556
27.9210048164
27.9209919247
27.920979382
27.9209674446
27.920956241
27.9209458254
27.9209361782
27.9209272125
27.9209189776
27.9209111686
27.9209039708
27.9208969994
27.9208903737
27.9208840992
27.9208782886
27.9208732012
27.9208691928
27.9208661156
27.9208643901
27.9208640795
27.9208647968
27.9208660176
27.9208669394
27.920866832
27.9208647391
27.9208599854
27.9208525256
27.9208426948
27.9208313305
27.9208197306
27.9208097279
27.9208030334
27.9220231845
27.9220125277
27.9220064274
27.9220039079
27.9220066812
27.9220158435
27.922030661
27.9220506856
27.9220751159
27.9221026205
27.9221316708
27.9221607824
27.9221887178
27.9222144659
27.9222371671
27.9222561646
27.9222711708
27.9222823381
27.9222900938
27.9222950766
27.9222980275
27.9222996667
27.9223004436
27.9223004732
27.9222994589
27.9222968843
27.9222923932
27.9222858229
27.9222771608
27.9222665216
27.9222541964
27.922240665
27.9222265317
27.9222124034
27.9221987698
27.9221859407
27.922174056
27.9221631482
27.9221531461
27.9221439489
27.9221355804
27.9221277644
27.9221206319
27.922113757
27.9221072426
27.9221009646
27.922095
27.9220897045
27.9220857201
27.9220830972
27.922082245
27.9220831017
27.9220856557
27.9220897759
27.9220945896
27.9220989957
27.92210135
27.9221012118
27.9220979388
27.9220906243
27.9220799135
27.9220666592
27.9220519389
27.9220369503
27.9228348823
27.9228168747
27.9228004591
27.92278716
27.9227784554
27.9227742702
27.9227751106
27.9227829334
27.9227984171
27.9228209296
27.922849258
27.9228814444
27.9229152447
27.9229485425
27.9229795506
27.9230068849
27.9230296817
27.9230477837
27.9230617361
27.9230723637
27.9230803293
27.9230859672
27.9230895781
27.9230913665
27.9230917093
27.9230902554
27.9230861575
27.9230793688
27.923070075
27.9230585786
27.9230452932
27.9230307652
27.9230156521
27.9230006128
27.9229861752
27.9229726595
27.9229601901
27.9229487813
27.9229383586
27.9229288632
27.9229203486
27.92291264
27.9229058229
27.9228995086
27.9228937189
27.9228882211
27.9228830923
27.922878568
27.9228752458
27.9228733181
27.9228729117
27.922874166
27.9228773939
27.9228824845
27.9228885284
27.922894693
27.9229001006
27.9229031655
27.9229033626
27.9229003964
27.9228934825
27.922882843
27.9228690589
27.9228527807
27.9234553477
27.9234369081
27.9234177472
27.9233991767
27.9233825115
27.9233694411
27.9233618472
27.9233592862
27.9233625235
27.9233742688
27.9233948342
27.9234228812
27.923456099
27.9234916973
27.9235270087
27.9235599084
27.9235890113
27.9236137206
27.9236341859
27.9236509731
27.9236646396
27.92367545
27.9236833248
27.9236879572
27.9236898026
27.9236896212
27.9236869219
27.9236808529
27.9236715674
27.9236595712
27.9236455536
27.9236302567
27.923614437
27.9235988004
27.9235838978
27.9235700547
27.9235573829
27.9235458707
27.9235354161
27.9235259292
27.9235174296
27.9235098949
27.9235033336
27.9234974894
27.9234923707
27.923487742
27.9234836945
27.9234803378
27.9234780677
27.9234771926
27.9234774484
27.9234791474
27.9234827222
27.9234878501
27.9234936414
27.9234993157
27.923504323
27.9235079115
27.9235091059
27.9235079437
27.9235041166
27.9234966138
27.9234857604
27.9234718775
27.9239945447
27.9239786755
27.923961185
27.9239427416
27.9239242019
27.9239069793
27.9238928749
27.9238837725
27.9238802841
27.9238817375
27.9238902871
27.9239076991
27.9239330333
27.9239640051
27.9239977619
27.9240317209
27.9240640142
27.9240934952
27.9241196244
27.9241423142
27.9241617134
27.9241779607
27.9241909438
27.924200178
27.9242051298
27.9242068712
27.9242062238
27.9242022712
27.9241943116
27.9241826982
27.924168384
27.9241524805
27.9241359915
27.924119755
27.9241044106
27.9240903523
27.9240777203
27.9240664697
27.9240564284
27.9240474007
27.9240392558
27.9240320794
27.9240257699
27.9240202225
27.9240155054
27.9240114811
27.9240082647
27.9240059332
27.9240049492
27.9240054667
27.9240070497
27.9240102251
27.9240150735
27.9240211134
27.9240272861
27.924032687
27.9240366524
27.9240387708
27.9240389674
27.9240376252
27.9240345153
27.9240283008
27.9240194565
27.9240082562
27.9244076796
27.9243943092
27.9243794919
27.9243634128
27.9243465248
27.9243296281
27.92431381
27.9243007376
27.924292155
27.9242884353
27.9242890339
27.9242947462
27.9243081027
27.9243290044
27.9243556709
27.9243857677
27.9244171656
27.9244481562
27.9244774724
27.9245043182
27.9245283038
27.9245492866
27.9245670684
27.9245811679
27.92459093
27.9245961256
27.9245980358
27.9245970888
27.9245922308
27.9245826876
27.9245691599
27.9245531425
27.9245361053
27.9245191843
27.9245031996
27.9244886805
27.9244758594
27.9244647117
27.9244550519
27.9244466781
27.924439264
27.9244328661
27.9244272127
27.9244222696
27.9244180942
27.9244146388
27.9244120956
27.9244107587
27.9244108979
27.9244126964
27.9244160971
27.9244213092
27.9244281083
27.9244358553
27.9244433138
27.9244493142
27.9244529079
27.9244537329
27.9244524027
27.924449601
27.9244453691
27.9244384369
27.9244295347
27.924419391
27.9246756628
27.9246640488
27.924651634
27.9246382971
27.9246241449
27.9246096289
27.9245952516
27.9245817086
27.9245705309
27.9245631687
27.9245597593
27.9245595865
27.9245635488
27.9245740232
27.924591462
27.9246147189
27.92464192
27.9246710994
27.9247005038
27.924728827
27.9247552477
27.9247793331
27.9248007407
27.9248189463
27.9248332308
27.9248430298
27.9248484438
27.9248504522
27.924849205
27.9248434877
27.9248323593
27.9248172935
27.9248003211
27.924783048
27.924766537
27.924751452
27.9247381357
27.9247266484
27.9247168777
27.9247088107
27.9247020463
27.9246965049
27.9246917262
27.9246876391
27.9246841461
27.9246812227
27.9246791566
27.9246783261
27.9246789474
27.9246814089
27.9246860121
27.9246925838
27.9247007303
27.9247096673
27.9247181475
27.9247247857
27.9247283404
27.9247286328
27.9247263921
27.9247221647
27.9247161332
27.9247074184
27.9246971328
27.9246865758
27.9248456877
27.92483539
27.9248251434
27.9248144978
27.9248032226
27.9247914987
27.924779513
27.9247673071
27.9247557912
27.9247465519
27.9247406658
27.9247380079
27.9247380718
27.9247421036
27.9247521019
27.9247683325
27.9247898596
27.9248150378
27.9248420677
27.9248694293
27.9248960634
27.9249213537
27.9249448674
27.924966034
27.9249839774
27.924997841
27.9250072719
27.9250122464
27.9250135897
27.9250118582
27.9250046171
27.9249918887
27.9249760272
27.9249591991
27.9249427733
27.9249275183
27.9249138407
27.9249018835
27.9248916126
27.9248832383
27.9248765284
27.9248712817
27.9248669506
27.924863388
27.9248602909
27.9248575886
27.9248554991
27.9248544824
27.9248547915
27.9248569635
27.9248616094
27.9248683041
27.9248766582
27.9248857468
27.9248943736
27.9249011287
27.9249046571
27.9249048596
27.9249023507
27.924897373
27.9248899036
27.9248795206
27.9248677361
27.9248563669
27.9249451755
27.9249359542
27.9249275465
27.9249193142
27.9249107012
27.9249015173
27.9248916725
27.9248810124
27.9248699542
27.9248599009
27.9248525032
27.9248484817
27.9248471397
27.9248486215
27.9248545101
27.9248657666
27.9248822204
27.9249029028
27.9249264047
27.9249513151
27.9249765654
27.9250014837
27.925025627
27.9250484081
27.9250688307
27.9250857481
27.9250982681
27.9251060069
27.9251094304
27.9251095266
27.9251062331
27.9250969085
27.9250831917
27.9250676666
27.9250520579
27.9250372877
27.925023793
27.9250117297
27.9250010799
27.9249920726
27.9249848116
27.9249790846
27.9249744137
27.9249706263
27.9249673046
27.9249643272
27.9249617599
27.92496
27.9249596114
27.9249610446
27.9249648508
27.9249708253
27.9249786633
27.9249874013
27.9249957932
27.9250024832
27.9250061386
27.9250065619
27.9250042758
27.9249992925
27.9249912025
27.9249799464
27.9249673707
27.9249555904
27.9249786526
27.9249700713
27.9249627527
27.9249560944
27.9249494099
27.9249420701
27.9249337674
27.9249241901
27.9249135088
27.9249029765
27.92489432
27.9248889145
27.9248867067
27.9248870972
27.9248910502
27.9248998025
27.9249134457
27.9249314205
27.9249526654
27.9249759557
27.9250002592
27.925024848
27.9250492215
27.9250727557
27.9250944214
27.9251129034
27.9251270986
27.9251364237
27.925140787
27.9251417263
27.9251398371
27.9251328869
27.9251209996
27.9251065839
27.9250916919
27.9250774042
27.9250642098
27.9250522567
27.9250414859
27.9250320075
27.9250240701
27.9250175409
27.9250120801
27.9250075563
27.9250035667
27.925000028
27.9249969317
27.9249946374
27.9249939296
27.9249950116
27.9249982525
27.92500381
27.9250112955
27.9250198975
27.9250282941
27.925035079
27.9250390218
27.925039736
27.9250377928
27.9250331625
27.9250250022
27.925013461
27.925000673
27.9249888262
27.9249707972
27.9249626052
27.9249559288
27.9249503002
27.9249449287
27.9249388928
27.9249315813
27.9249226599
27.9249122094
27.9249013637
27.9248917226
27.9248849353
27.9248818038
27.9248813902
27.9248839934
27.9248908905
27.9249021573
27.9249174083
27.9249359039
27.9249567343
27.924979029
27.9250021669
27.9250256819
27.9250489376
27.9250708986
27.9250902279
27.9251056522
27.9251163018
27.9251219288
27.925123753
27.9251224678
27.9251177297
27.9251082066
27.92509554
27.9250819028
27.9250685475
27.925056032
27.9250445859
27.9250341728
27.9250247404
27.9250165508
27.925009566
27.9250035874
27.9249985333
27.9249940837
27.9249901827
27.9249868093
27.9249843451
27.9249835302
27.9249843641
27.9249872016
27.9249924961
27.9249999006
27.9250085377
27.9250170638
27.9250241082
27.9250284595
27.9250296144
27.9250281926
27.9250241378
27.925016235
27.925004852
27.9249922889
27.9249806857
27.9248778529
27.9248700404
27.9248638916
27.9248590289
27.924854603
27.9248494772
27.9248426931
27.9248338845
27.924823072
27.9248112847
27.9248000713
27.9247911939
27.9247858386
27.9247836342
27.9247841687
27.9247883104
27.9247966057
27.924808697
27.9248239944
27.924841808
27.9248614862
27.9248825484
27.9249045633
27.9249269165
27.9249486169
27.9249683374
27.9249847013
27.924996644
27.9250037618
27.9250067663
27.9250067448
27.9250039871
27.9249969993
27.9249865377
27.9249745682
27.9249625488
27.9249511832
27.9249407435
27.9249311941
27.9249223688
27.9249144474
27.924907483
27.9249013926
27.924896173
27.9248916059
27.9248877008
27.9248844645
27.9248823329
27.9248818632
27.9248829534
27.9248859666
27.9248915561
27.9248994126
27.9249086621
27.9249178705
27.924925641
27.9249308539
27.9249327831
27.9249321798
27.9249290887
27.9249217827
27.9249108281
27.924898683
27.9248874306
27.9246758972
27.9246683732
27.9246626724
27.9246585252
27.9246550915
27.924650973
27.9246448983
27.9246362717
27.9246249884
27.9246118992
27.9245985245
27.924586736
27.9245781006
27.9245729591
27.9245708222
27.9245716924
27.9245763478
27.9245849967
27.9245969664
27.9246116497
27.9246284932
27.9246470678
27.9246669735
27.9246876738
27.9247082991
27.9247276359
27.924744359
27.9247573155
27.9247658945
27.9247704754
27.9247721422
27.9247713038
27.9247670659
27.9247593393
27.9247496633
27.924739547
27.9247298626
27.9247209409
27.9247127465
27.9247050315
27.9246978676
27.9246913287
27.9246854227
27.9246802567
27.9246757547
27.9246720508
27.9246692492
27.9246678641
27.9246680823
27.9246698698
27.9246737068
27.9246801355
27.9246889088
27.924699126
27.9247093213
27.9247180308
27.9247241591
27.9247270324
27.924727273
27.9247250856
27.9247184678
27.9247079743
27.9246962133
27.924685247
27.9244270542
27.9244194659
27.9244138572
27.9244100677
27.9244073083
27.9244040513
27.9243988029
27.924390785
27.924379748
27.9243663232
27.9243519773
27.924338625
27.9243280154
27.9243209369
27.9243175833
27.9243171302
27.9243198855
27.924326748
27.9243369856
27.9243499266
27.9243649647
27.9243816165
27.9243994617
27.9244180305
27.924436629
27.9244543036
27.9244699572
27.9244824753
27.924491169
27.9244963205
27.9244986646
27.9244989189
27.9244965603
27.9244909636
27.9244833229
27.9244750262
27.924467021
27.9244596899
27.9244529857
27.9244466095
27.9244405251
27.9244347354
27.9244292894
27.9244243975
27.9244201301
27.9244167699
27.924414583
27.9244139731
27.924414939
27.9244176259
27.9244224601
27.9244298015
27.9244393411
27.9244500672
27.92446054
27.924469314
27.9244753699
27.9244782709
27.9244786071
27.9244765106
27.9244699229
27.9244593474
27.9244475445
27.9244365147
27.9242358489
27.9242283192
27.9242229458
27.9242196521
27.9242177396
27.9242156479
27.9242117303
27.9242050504
27.9241952591
27.9241827905
27.924168993
27.9241557423
27.9241448541
27.924137424
27.9241340997
27.9241337637
27.9241363509
27.9241428689
27.9241527265
27.9241652834
27.9241797985
27.9241956225
27.9242121808
27.9242289344
27.9242452785
27.9242605018
27.9242737876
27.9242842355
27.9242913317
27.9242953926
27.9242972034
27.9242975043
27.9242958927
27.9242916621
27.9242856239
27.9242789565
27.9242725538
27.9242667841
27.9242615673
27.9242565714
27.9242516752
27.924246787
27.9242419671
27.9242374876
27.9242335245
27.9242304691
27.9242286855
27.9242284293
27.9242297211
27.9242329085
27.9242382579
27.9242459051
27.9242554476
27.9242657671
27.9242754582
27.924283177
27.9242881123
27.9242900906
27.9242898413
27.9242870613
27.9242797986
27.9242686887
27.9242565632
27.9242453735
27.9241338697
27.9241268544
27.92412209
27.9241195555
27.9241186364
27.9241177916
27.9241152606
27.9241099796
27.924101578
27.9240903715
27.9240775401
27.9240647961
27.9240539447
27.9240463741
27.9240430614
27.9240427647
27.9240452461
27.9240514882
27.9240610711
27.924073539
27.924088111
27.9241039601
27.9241202608
27.9241362505
27.9241512278
27.9241645468
27.9241755752
27.924183706
27.9241887013
27.9241909372
27.9241915305
27.9241912674
27.9241896682
27.9241861879
27.9241813109
27.9241759697
27.9241709295
27.9241664963
27.9241625611
27.9241587906
27.9241550155
27.9241510625
27.9241469712
27.9241430062
27.9241393782
27.9241365121
27.9241347888
27.9241344927
27.9241357227
27.9241389327
27.9241443126
27.9241517372
27.9241607618
27.924170251
27.9241788327
27.9241852672
27.9241889448
27.924190007
27.9241891168
27.9241855328
27.9241776087
27.9241661625
27.9241539828
27.924143001
27.9240764989
27.9240702163
27.92406614
27.9240643161
27.9240641829
27.9240642442
27.9240626891
27.9240583596
27.9240509108
27.9240406037
27.9240284535
27.9240159664
27.9240048868
27.9239968644
27.923993122
27.9239924544
27.9239944734
27.9240000829
27.9240090973
27.9240212776
27.9240359202
27.9240520882
27.9240687207
27.9240847839
27.9240993691
27.9241117449
27.9241213339
27.9241277255
27.9241308496
27.9241315157
27.9241306986
27.9241295947
27.9241276016
27.9241243781
27.924120201
27.9241157844
27.9241117425
27.9241083097
27.9241053635
27.9241025936
27.9240998042
27.9240967532
27.9240934341
27.9240900508
27.9240867999
27.9240840958
27.924082325
27.9240819016
27.9240829871
27.924086074
27.9240913397
27.9240984323
27.9241069097
27.9241156816
27.9241233982
27.9241288988
27.9241317045
27.9241321951
27.9241309141
27.9241267941
27.9241185505
27.9241071781
27.9240953336
27.9240849171
27.9240197788
27.9240143064
27.924010924
27.9240097314
27.9240101959
27.9240107942
27.9240098241
27.9240061177
27.9239992352
27.9239894632
27.9239776919
27.9239652405
27.9239537667
27.9239450681
27.9239405364
27.923939254
27.9239405807
27.9239452646
27.923953438
27.9239650777
27.9239796228
27.9239960981
27.9240132577
27.9240298008
27.924044562
27.9240566403
27.9240653908
27.9240704054
27.9240720308
27.9240712389
27.9240688849
27.9240668139
27.9240641284
27.9240607675
27.9240569388
27.924053152
27.9240498719
27.9240472611
27.9240451863
27.9240433616
27.9240415687
27.924039505
27.924037096
27.9240344493
27.924031716
27.9240292784
27.924027538
27.9240270435
27.9240280179
27.9240309808
27.9240361187
27.9240429068
27.92405091
27.9240591199
27.9240662123
27.9240710777
27.9240733102
27.924073454
27.9240719626
27.9240675393
27.9240592319
27.9240482073
27.9240369656
27.924027328
27.9239365281
27.9239319165
27.9239292863
27.9239286568
27.9239295797
27.923930523
27.9239298673
27.9239265426
27.9239199304
27.9239103723
27.9238987006
27.9238861124
27.9238741621
27.9238646306
27.923859019
27.9238569598
27.9238574101
27.9238608844
27.9238679422
27.9238787464
27.9238929204
27.9239095203
27.9239271751
27.9239443545
27.9239596467
27.9239719273
27.9239803285
27.9239843152
27.9239847888
27.9239825348
27.9239787137
27.9239753361
27.9239717283
27.9239679417
27.9239641711
27.9239607801
27.9239581019
27.9239562255
27.9239549971
27.9239541436
27.9239534192
27.9239524656
27.923951129
27.9239493993
27.9239473561
27.9239453348
27.9239437549
27.9239432758
27.9239441975
27.923947073
27.9239521076
27.9239586691
27.9239663164
27.9239741277
27.9239808159
27.9239853013
27.9239872047
27.9239871673
27.9239856161
27.9239810929
27.9239728952
27.923962366
27.9239518816
27.9239431362
27.9238145134
27.9238107158
27.9238088093
27.9238086606
27.9238099106
27.9238110648
27.9238105422
27.9238073928
27.9238008414
27.9237912802
27.9237795436
27.9237667758
27.923754403
27.923744043
27.9237372629
27.923734304
27.9237337429
27.9237358132
27.9237415002
27.9237511592
27.9237646098
27.9237810156
27.9237989537
27.9238167148
27.9238326684
27.9238454373
27.9238538566
27.9238574408
27.9238572082
27.9238537671
27.9238486928
27.923843665
27.9238388868
27.9238344107
27.9238304168
27.9238271815
27.923824934
27.9238236884
27.9238232622
27.9238233712
27.9238237223
27.9238239172
27.9238237256
27.9238230221
27.9238218016
27.9238203265
27.9238190286
27.9238186458
27.9238195779
27.9238224223
27.9238273974
27.9238338468
27.9238413165
27.9238489443
27.9238554736
27.9238598432
27.9238616795
27.92386164
27.923860184
27.9238557451
27.9238477819
27.9238378014
27.9238281022
27.9238202334
27.923657
27.9236538481
27.9236525077
27.923652699
27.9236541364
27.9236553902
27.9236548892
27.9236517869
27.9236452341
27.9236356447
27.9236238773
27.9236110536
27.9235984467
27.9235874553
27.9235796618
27.9235756204
27.9235740314
27.9235747442
27.9235788212
27.9235870919
27.9235995098
27.9236153913
27.9236333344
27.9236515112
27.9236681115
27.9236814984
27.9236902085
27.923693785
27.9236932864
27.9236892288
27.9236831253
27.923676507
27.9236702593
27.9236647696
27.923660261
27.9236569345
27.923654936
27.9236542002
27.9236544324
27.9236554054
27.9236568169
27.9236581041
27.9236589767
27.9236592903
27.9236589628
27.9236581293
27.923657217
27.9236570044
27.9236580087
27.9236608903
27.9236658725
27.9236723373
27.9236798201
27.9236874847
27.9236940875
27.9236985722
27.9237005709
27.9237006901
27.9236994679
27.9236952475
27.9236875809
27.9236781276
27.9236691325
27.9236620051
27.9234664866
27.923463762
27.9234627547
27.9234631269
27.9234646421
27.9234658959
27.9234653629
27.9234622675
27.9234557671
27.9234462735
27.9234346661
27.9234220418
27.9234095035
27.9233982118
27.9233896359
27.9233845109
27.9233819542
27.9233813806
27.9233837606
27.9233904842
27.9234016639
27.9234167663
27.9234344762
27.9234529188
27.9234701435
27.9234842187
27.9234933445
27.9234971113
27.9234966799
27.9234924185
27.9234855361
27.9234775096
27.9234695767
27.923462665
27.9234572778
27.9234536006
27.9234517003
27.9234512523
27.9234519966
27.9234538018
27.9234561687
27.9234584945
27.9234604269
27.9234616835
27.923462205
27.9234621266
27.9234617454
27.9234618013
27.9234629512
27.9234659468
27.9234710074
27.9234775948
27.9234852451
27.9234931172
27.9234999617
27.9235047141
27.9235070093
27.9235073713
27.9235064541
27.9235024904
27.9234950908
27.9234860597
27.9234776047