/*--------------------------------*- C++ -*----------------------------------*\
  =========                 |
  \\      /  F ield         | OpenFOAM: The Open Source CFD Toolbox
   \\    /   O peration     | Website:  https://openfoam.org
    \\  /    A nd           | Version:  6
     \\/     M anipulation  |
\*---------------------------------------------------------------------------*/
FoamFile
{
    version     2.0;
    format      ascii;
    class       volScalarField;
    location    "2e-08";
    object      T;
}
// * * * * * * * * * * * * * * * * * * * * * * * * * * * * * * * * * * * * * //

dimensions      [0 0 0 1 0 0 0];

internalField   nonuniform List<scalar> 
12288
(
593.169209655
593.169204553
593.169199669
593.169194883
593.169190006
593.169184898
593.169179508
593.169173927
593.16916841
593.169163308
593.169158968
593.169155601
593.16915327
593.169151873
593.169151106
593.169150669
593.169150481
593.169150573
593.169151012
593.169151864
593.169153202
593.169155123
593.169157689
593.169160843
593.169164319
593.169167667
593.169170261
593.16917142
593.169171387
593.169170199
593.169167728
593.169164606
593.169161427
593.169158674
593.169156721
593.169155767
593.169155836
593.169157012
593.169159041
593.169161653
593.169164639
593.169167842
593.169171054
593.169174016
593.169176699
593.169179276
593.169181918
593.169184713
593.169187817
593.169191501
593.169195799
593.169200485
593.169205962
593.169212286
593.169219113
593.169225663
593.169230977
593.169234085
593.16923482
593.169233607
593.169230263
593.169225482
593.169220268
593.169214946
593.310193677
593.310185646
593.310176984
593.310167547
593.310157076
593.310145388
593.310132492
593.310118653
593.310104339
593.310090105
593.310076477
593.310063822
593.31005227
593.310041673
593.310031713
593.31002207
593.310012537
593.310003059
593.309993711
593.309984728
593.309976408
593.309969041
593.30996286
593.30995797
593.309954286
593.309951434
593.309948701
593.309945335
593.309940892
593.309935299
593.309928626
593.309921373
593.309914595
593.309909381
593.30990648
593.309905685
593.309907187
593.309911654
593.309918707
593.309927918
593.309938916
593.309951344
593.309964858
593.30997915
593.309994048
593.310009483
593.310025414
593.310041811
593.310058696
593.310076195
593.31009442
593.310113187
593.310132226
593.310151541
593.310170674
593.310188067
593.31020206
593.310211795
593.310217302
593.310219068
593.310217423
593.310213122
593.310207465
593.310201011
593.329701591
593.329690704
593.329678709
593.329665397
593.329650324
593.329633082
593.329613591
593.329592167
593.329569393
593.329545972
593.329522658
593.329500131
593.329478734
593.329458219
593.329437988
593.329417507
593.329396497
593.329374864
593.329352486
593.329329801
593.32930753
593.329286403
593.32926686
593.329249016
593.329232723
593.32921754
593.329202811
593.329187813
593.329172051
593.329155516
593.329138575
593.329121788
593.329106507
593.329094768
593.329087794
593.329085329
593.329086633
593.329092935
593.329104826
593.329121645
593.329142683
593.329167276
593.329194869
593.329224976
593.329257101
593.329290858
593.329325987
593.329362239
593.329399316
593.329437056
593.329475441
593.329514354
593.329553499
593.329592131
593.329628894
593.329662256
593.329689389
593.329708947
593.329721523
593.329727927
593.329729266
593.329726077
593.3297194
593.329711139
593.173765999
593.173753858
593.173740843
593.17372721
593.173712426
593.173695386
593.173675276
593.173651596
593.173624506
593.173594917
593.173564332
593.173534164
593.173504607
593.173474168
593.173441587
593.173406627
593.173370089
593.173332062
593.173291979
593.173250251
593.173207734
593.173165955
593.173126103
593.173088645
593.173053416
593.173019816
593.172986974
593.17295405
593.172920735
593.172887303
593.172854115
593.172821885
593.172791868
593.172766095
593.172747571
593.172737766
593.172734523
593.17273821
593.172750993
593.172772114
593.172800322
593.172835148
593.172876482
593.172923948
593.172976424
593.173033148
593.173093439
593.173156288
593.173221132
593.173288266
593.173357568
593.173427966
593.17349728
593.173563561
593.173625064
593.173679456
593.173724119
593.173756885
593.173778816
593.173791718
593.173796402
593.173794396
593.173787095
593.173777026
593.003253168
593.003260056
593.003266501
593.003273425
593.003280308
593.003285027
593.003284911
593.0032777
593.003262051
593.003239904
593.003214068
593.003186799
593.003157075
593.003121162
593.003077548
593.003027289
593.002973242
593.002915955
593.002855315
593.002792151
593.002727958
593.002665401
593.002606327
593.002551208
593.002499257
593.002448842
593.002397803
593.002344538
593.00228933
593.002232866
593.002175097
593.002116807
593.002059862
593.002006461
593.001958231
593.001916768
593.001883909
593.001862229
593.00185186
593.001849389
593.001854141
593.001867875
593.001890875
593.001924229
593.001966766
593.002018448
593.002078776
593.002145647
593.002219841
593.002304029
593.002398462
593.002500537
593.002605863
593.002711144
593.002813214
593.002908404
593.00299301
593.003064354
593.003122151
593.003167253
593.003200443
593.003222623
593.00323614
593.00324533
592.92352858
592.923582686
592.923634602
592.923684512
592.923729665
592.923771537
592.923803041
592.923823068
592.923831166
592.923830443
592.92382218
592.923805862
592.923781433
592.92374732
592.923703262
592.923650724
592.923591631
592.923527267
592.923459239
592.923389733
592.923321681
592.923257675
592.923198824
592.923144476
592.923092557
592.923040437
592.92298551
592.922925967
592.922861243
592.922791462
592.922717292
592.922640126
592.922561817
592.92248428
592.922409314
592.922338944
592.922275002
592.922218246
592.922168602
592.922126521
592.922091031
592.922060677
592.922035786
592.922017917
592.922008345
592.922007128
592.922016052
592.922036564
592.92206998
592.922118947
592.922184962
592.922267739
592.922365443
592.92247559
592.92259471
592.922718387
592.922841516
592.922959496
592.92306929
592.923169342
592.923258847
592.923337825
592.923407715
592.923470711
592.889293296
592.889402469
592.889504653
592.889598853
592.889683392
592.889755918
592.889814075
592.889856579
592.889886166
592.889902785
592.889906624
592.889900221
592.889884185
592.889858128
592.889822329
592.889778479
592.88972781
592.889671597
592.889611795
592.889551007
592.889491952
592.889436553
592.889385377
592.889337478
592.889290719
592.889242482
592.889190315
592.889132346
592.889067355
592.888995047
592.888916123
592.888832329
592.888746031
592.888659754
592.888575756
592.888495732
592.888420731
592.888351021
592.888285635
592.888222696
592.888161573
592.888102245
592.888044232
592.887988219
592.887935279
592.887886788
592.887844746
592.887811792
592.887791293
592.887783674
592.887791916
592.887821879
592.887873661
592.887946454
592.888039479
592.888149635
592.888272216
592.888402241
592.888535617
592.888669501
592.888801892
592.888931344
592.889056927
592.88917785
592.866332273
592.866484484
592.866628936
592.866761784
592.866879216
592.866977945
592.867056511
592.867116202
592.867160205
592.867190088
592.867204216
592.867206092
592.867199035
592.867182773
592.867159132
592.867129095
592.86709312
592.86705178
592.867006561
592.866959409
592.866912174
592.866866013
592.866821384
592.866778051
592.866735154
592.866691153
592.86664383
592.866590643
592.86652931
592.866458846
592.866379821
592.866294461
592.866205953
592.866117595
592.866032038
592.865950839
592.865874375
592.865802096
592.865732848
592.865665003
592.865597234
592.865529189
592.865460478
592.865391727
592.86532333
592.865256201
592.865192597
592.86513345
592.865080059
592.865036311
592.865007155
592.864995652
592.865000767
592.865026203
592.865075782
592.865147398
592.865237458
592.865342274
592.86545925
592.865586306
592.865722647
592.865867791
592.866020026
592.866176143
592.853103392
592.853274922
592.853448713
592.853617292
592.853773432
592.85391116
592.85402733
592.854121817
592.854196263
592.854253288
592.854295155
592.854321988
592.854335407
592.854340289
592.854338938
592.854330954
592.854316463
592.8542954
592.854268302
592.854236451
592.85420129
592.854163893
592.85412509
592.854085567
592.854045752
592.854005123
592.853961633
592.853912123
592.853853451
592.853784126
592.8537048
592.853618211
592.853528152
592.853438293
592.853351308
592.85326855
592.853190136
592.853115388
592.853043353
592.852972916
592.852903706
592.852834885
592.852765908
592.852697203
592.852628692
592.852560773
592.852495005
592.852431216
592.85237098
592.852317426
592.852271842
592.852236331
592.852215734
592.852210364
592.852218574
592.852240774
592.852276656
592.852326449
592.852389962
592.852464685
592.852554502
592.852663436
592.852792812
592.852940851
592.85182342
592.851985982
592.852167027
592.852356659
592.852544086
592.852719845
592.852877213
592.85301258
592.853125157
592.853216559
592.853289862
592.853347323
592.853389314
592.853418226
592.853437738
592.853449226
592.853453191
592.853448543
592.853434271
592.853412028
592.85338379
592.853351353
592.8533163
592.85327997
592.853243341
592.853206122
592.853166048
592.853119306
592.853062245
592.852993228
592.852913164
592.852825135
592.85273315
592.852640814
592.852550565
592.852463608
592.852380225
592.852300279
592.85222356
592.852149637
592.85207933
592.852011259
592.851946144
592.851883635
592.851822529
592.851762969
592.85170497
592.851651332
592.851602039
592.851558033
592.851519589
592.851487729
592.851463103
592.851445373
592.851435115
592.851429463
592.851424701
592.851421476
592.851421679
592.851430693
592.851457701
592.851504222
592.851579484
592.851686538
592.859410366
592.859523371
592.859672326
592.859849726
592.860044597
592.860245467
592.860441992
592.860625754
592.860790807
592.860934108
592.861055687
592.861157698
592.861241826
592.861308745
592.861359614
592.861396232
592.86141942
592.861429292
592.861427615
592.861415362
592.861395014
592.861370168
592.861342708
592.861313618
592.861283203
592.86125047
592.861212578
592.861165563
592.861106258
592.861033621
592.860949091
592.860855985
592.860758334
592.860659812
592.860563144
592.860469973
592.860381079
592.860296839
592.860217411
592.860142478
592.860073084
592.860006998
592.859945766
592.859887338
592.859831622
592.859779286
592.859731127
592.859687876
592.859650416
592.859618922
592.859594401
592.859577671
592.85956641
592.859556639
592.859544133
592.859526043
592.859500011
592.859464422
592.859419388
592.859369762
592.859325222
592.859298691
592.859300306
592.859335298
592.871481643
592.871488649
592.871543571
592.871645449
592.871787543
592.871963403
592.872163173
592.872376196
592.872591856
592.872800521
592.872995136
592.873172052
592.873329767
592.873466339
592.873579601
592.873668903
592.873735277
592.873779545
592.873802492
592.873810017
592.873808374
592.873800117
592.873787734
592.873772207
592.873752272
592.873725472
592.873688678
592.873638861
592.873574112
592.873494269
592.87340127
592.87329875
592.873191151
592.873082773
592.872977072
592.872876328
592.872781746
592.872693855
592.872612528
592.872537058
592.872467834
592.872402597
592.872342426
592.872284339
592.872229237
592.872177209
592.872129318
592.872087775
592.872055274
592.872030716
592.87201777
592.872016452
592.872023761
592.872035449
592.872044242
592.872044388
592.872027783
592.871988527
592.871926274
592.87184386
592.87174833
592.871650299
592.871564625
592.871505357
592.881547751
592.881455645
592.881401088
592.881376639
592.881394724
592.88146561
592.881584447
592.881747575
592.881948888
592.882177452
592.882420418
592.882665119
592.882900802
592.883118636
592.883311164
592.883472649
592.883600414
592.883695626
592.883762105
592.883805345
592.883831421
592.883846234
592.883853417
592.883854352
592.883846698
592.88382602
592.883789337
592.883735262
592.883663657
592.883575419
592.883472878
592.883359937
592.883241586
592.883122913
592.883008103
592.882899873
592.882799514
592.882707381
592.882622951
592.88254543
592.882475045
592.882409723
592.882350141
592.882293008
592.88223898
592.882187106
592.882138184
592.88209525
592.882063392
592.882043045
592.882037065
592.882045246
592.882067733
592.882103127
592.882144126
592.882181488
592.882201532
592.882201052
592.88217436
592.882113798
592.882024821
592.881914498
592.881791373
592.881665003
592.888221219
592.888070358
592.887931936
592.887818171
592.887741415
592.887703327
592.887705821
592.887765578
592.88789021
592.88807455
592.888308862
592.888576876
592.888859641
592.88913912
592.889400051
592.889630627
592.889823427
592.889976956
592.89009568
592.890186492
592.890254901
592.890303668
592.890335109
592.890350981
592.890354473
592.890343276
592.89031032
592.890254741
592.890178081
592.890082837
592.889972395
592.889851245
592.889724832
592.889598681
592.889477287
592.889363435
592.889258271
592.889161988
592.889074044
592.88899399
592.888922329
592.888857813
592.888800836
592.88874837
592.888700416
592.888655217
592.888613513
592.888577368
592.888551504
592.888537269
592.888535028
592.888546536
592.888574538
592.888617483
592.888667927
592.888718916
592.888763284
592.88878855
592.888790068
592.888765093
592.888707799
592.888619979
592.88850593
592.888370621
592.893358277
592.893205495
592.893046168
592.892890762
592.89275002
592.892638076
592.892570787
592.892546436
592.892569617
592.89266254
592.892829658
592.893060249
592.893335272
592.893631454
592.893926368
592.894202072
592.89444682
592.894655411
592.894828751
592.894971264
592.895087484
592.895179667
592.895247256
592.895287651
592.895304028
592.895303485
592.895282529
592.895233571
592.895157473
592.89505837
592.894941988
592.894814507
592.894682249
592.894551164
592.894425964
592.894309496
592.894202786
592.894105779
592.89401766
592.89393771
592.893866168
592.89380298
592.893748048
592.893699366
592.893656896
592.893618942
592.893586276
592.893559913
592.893543152
592.893537862
592.893541566
592.893557197
592.893588293
592.893631671
592.893679921
592.893726558
592.893766901
592.893795116
592.893804229
592.89379382
592.893761161
592.893698927
592.893609518
592.893494993
592.897817024
592.89768623
592.897541765
592.897388845
592.89723438
592.897089883
592.896970236
592.896891059
592.896859441
592.89686874
592.896935286
592.89707517
592.897281626
592.897536252
592.897815604
592.898098177
592.898368212
592.898615831
592.898836057
592.899027688
592.899191724
592.899329312
592.899439615
592.8995188
592.899562399
592.899578245
592.899574303
592.899543662
592.899479507
592.899384274
592.899265809
592.899133421
592.898995585
592.89885944
592.898730491
592.898612186
592.898505792
592.898410956
592.898326271
592.898250182
592.898181699
592.898121494
592.898068716
592.898022535
592.897983439
592.897950524
592.897924743
592.897907144
592.897901053
592.897907321
592.897922714
592.897951224
592.89799331
592.898044653
592.898096399
592.898140962
592.89817264
592.898188085
592.898188168
592.89817578
592.898148298
592.898095672
592.898022318
592.897929962
592.901204082
592.90109412
592.900972205
592.900839603
592.900699974
592.900559755
592.900427633
592.900317155
592.900242998
592.900209974
592.900212467
592.900255712
592.900361526
592.900530357
592.900748388
592.900996692
592.901257526
592.901516328
592.901762052
592.901987571
592.902189338
592.90236608
592.902516232
592.902635981
592.902719954
592.902765964
592.902783529
592.902777797
592.902740333
592.9026634
592.902552258
592.902419343
592.902277107
592.902135282
592.90200094
592.901878666
592.901770498
592.901676283
592.901594563
592.901523807
592.90146148
592.901407831
592.90136071
592.901319763
592.901285348
592.901257228
592.901237214
592.901227891
592.901230764
592.90124767
592.901278429
592.901324069
592.90138249
592.901448094
592.901510635
592.901560301
592.901588812
592.901594034
592.901581313
592.90155627
592.901518911
592.901459505
592.901384945
592.901300744
592.903385638
592.90329014
592.903188339
592.903078861
592.902962502
592.90284286
592.902723755
592.902610737
592.902516208
592.902452665
592.90242253
592.902418894
592.902448128
592.902530527
592.90267107
592.902861122
592.903085493
592.903327716
592.90357284
592.903809568
592.904030771
592.904232727
592.904412645
592.904566366
592.904687979
592.904772483
592.90482042
592.90483913
592.904831318
592.904787051
592.904696924
592.90457268
592.904431433
592.904286936
592.904148341
592.904021344
592.903908888
592.903811585
592.903728667
592.903660179
592.903603083
592.903556471
592.903516695
592.903482966
592.90345434
592.903430766
592.903414881
592.903409267
592.903415849
592.903438224
592.903478622
592.90353532
592.903604663
592.903679865
592.903750576
592.903805257
592.903833384
592.903834601
592.903814592
592.903777578
592.903725091
592.903650559
592.903564098
592.903476041
592.904766893
592.904682181
592.904598415
592.904511525
592.9044194
592.904323269
592.9042244
592.904123065
592.904026542
592.903947957
592.903896993
592.903873705
592.903872322
592.903902624
592.903982061
592.904113541
592.904289879
592.904497645
592.904721787
592.904949406
592.905171471
592.905382699
592.905579583
592.905757557
592.905909415
592.906027795
592.906109232
592.906153424
592.906166728
592.906154766
592.906097861
592.905994077
592.905862787
592.905722447
592.90558488
592.905456638
592.905341205
592.905239929
592.905152728
592.905081409
592.905024414
592.90497998
592.904943743
592.9049142
592.904888795
592.904867036
592.90485088
592.904843526
592.904847199
592.904866855
592.90490718
592.904964493
592.905035165
592.905111322
592.905182913
592.905238224
592.905266095
592.90526681
592.905244827
592.905201672
592.905137351
592.905049046
592.904950207
592.904855452
592.905562836
592.90548699
592.905418428
592.90535174
592.905282088
592.905207281
592.905126509
592.905038167
592.904945725
592.904860754
592.904797305
592.904761869
592.904749486
592.904759858
592.904805799
592.904896299
592.905030291
592.905200026
592.905393968
592.90560038
592.905810277
592.906017837
592.906219465
592.906410427
592.906582541
592.906726106
592.906833412
592.90690078
592.906931182
592.906933771
592.906909123
592.90683448
592.906722
592.906593085
592.906462793
592.906338852
592.906225095
592.906123045
592.906032746
592.905956087
592.905894184
592.905845406
592.905805951
592.905774086
592.905746473
592.905722177
592.905701857
592.905688625
592.905686314
592.90569952
592.905732773
592.90578387
592.905850063
592.905923222
592.905992842
592.906047571
592.906076608
592.906079356
592.906059461
592.906016493
592.90594728
592.905852052
592.905746976
592.905649087
592.905811069
592.90574024
592.905680344
592.905626214
592.905571854
592.905511922
592.905443214
592.905363485
592.905274186
592.90518553
592.905112104
592.905065518
592.90504614
592.905048191
592.905079198
592.905150092
592.905261749
592.905409725
592.905585349
592.905778451
592.905980334
592.906185015
592.906388235
592.906584915
592.906766651
592.906922616
592.907043293
592.907123178
592.907161645
592.907170767
592.9071564
592.907101017
592.907003629
592.906884082
592.906759554
592.906639568
592.906528323
592.906427225
592.906335993
592.90625557
592.906188084
592.906132663
592.906086639
592.906048784
592.906015827
592.905986985
592.905962392
592.90594512
592.905940428
592.905950765
592.905979453
592.906027215
592.906090661
592.906162738
592.906232374
592.906287841
592.906319248
592.906324437
592.90630746
592.906267379
592.906197599
592.906100285
592.905993694
592.905895394
592.905711012
592.905643396
592.905588756
592.905543079
592.905499521
592.905450312
592.905389665
592.905315232
592.905227765
592.905136424
592.905054652
592.904996425
592.904968698
592.904963979
592.904983873
592.90503912
592.905130825
592.905255776
592.905407981
592.905579978
592.905764517
592.905956573
592.906152117
592.906345947
592.90652968
592.906692339
592.906822987
592.906913885
592.906963071
592.906979615
592.906970349
592.906933197
592.906855896
592.906751489
592.906637822
592.906525949
592.906420702
592.90632412
592.906236113
592.906156325
592.906086899
592.906027795
592.905977556
592.905935445
592.905898837
592.905867118
592.905840409
592.905822097
592.905816851
592.905825224
592.905850637
592.905896373
592.905959359
592.90603188
592.90610267
592.90616038
592.906195327
592.906204306
592.906191886
592.906156763
592.906089246
592.905993468
592.905888976
592.905792884
592.904883675
592.904819375
592.904769257
592.90473027
592.904695174
592.904653829
592.904598229
592.904524947
592.904434423
592.904334959
592.904239405
592.904162756
592.904115294
592.904094797
592.904096692
592.904127803
592.904193551
592.904290989
592.904415301
592.904561024
592.904722923
592.904896853
592.905079261
592.90526516
592.905446543
592.905612385
592.905750984
592.905853267
592.905915415
592.905942244
592.905944237
592.905924198
592.905869053
592.905783859
592.905685068
592.90558495
592.905489709
592.905401849
592.905321303
592.905246795
592.905179757
592.905120875
592.905069675
592.905026018
592.904988235
592.904956383
592.904930945
592.904915745
592.904913664
592.904924334
592.904951483
592.904999947
592.905066907
592.905144708
592.905221414
592.905285436
592.90532773
592.905343245
592.905337876
592.90531104
592.905248653
592.905156604
592.905055762
592.904962767
592.903142518
592.903080326
592.903033568
592.903000058
592.902972582
592.902939161
592.902889083
592.902817277
592.902722964
592.90261298
592.902500015
592.902399832
592.90232541
592.90228007
592.902260738
592.902265911
592.902301922
592.902371437
592.902468787
592.902588944
592.902727423
592.902880579
592.903045122
592.903216722
592.903388385
592.90355014
592.903690887
592.903800902
592.903874721
592.903915091
592.903930518
592.903925659
592.903893031
592.903830533
592.903750822
592.9036666
592.903585425
592.903510302
592.903441178
592.903376192
592.903315836
592.903260857
592.903211485
592.903168558
592.903131567
592.903101637
592.903080259
592.90307139
592.903075384
592.903092289
592.903126641
592.903182469
592.903257234
592.903343073
592.903427812
592.903499377
592.903548948
592.903571685
592.903573156
592.903553643
592.9034966
592.903408301
592.903310596
592.903219884
592.901063198
592.901000375
592.900954285
592.90092367
592.900901743
592.900875587
592.900832724
592.900766539
592.900674985
592.900563114
592.900443087
592.900330992
592.900241254
592.900180869
592.900151878
592.900147189
592.900168685
592.900224
592.900307663
592.900413994
592.900537931
592.900675385
592.900822818
592.900976405
592.901130584
592.901277599
592.901408353
592.90151355
592.901587337
592.901631642
592.90165225
592.901655804
592.901638193
592.901593336
592.901530585
592.901461614
592.901394524
592.901332759
592.901276193
592.901222547
592.901171407
592.90112287
592.901077486
592.901036966
592.901002008
592.900975079
592.900959033
592.900956091
592.900966252
592.900990901
592.901033416
592.901096669
592.901177523
592.90126713
592.901353498
592.901424854
592.901473082
592.901495231
592.901497073
592.90147781
592.901420444
592.901331164
592.901232919
592.901141561
592.899514922
592.899452864
592.89940899
592.899382699
592.899367935
592.899351623
592.899320089
592.899265406
592.899184704
592.899081514
592.89896693
592.898856545
592.898765264
592.898702505
592.898673914
592.898670523
592.89869116
592.898743848
592.898824467
592.898927819
592.899047764
592.899178814
592.899316066
592.899454989
592.899590589
592.899717014
592.899827551
592.899914836
592.899974572
592.900009049
592.900024691
592.900027994
592.900015973
592.89998219
592.899932682
592.899877272
592.899823541
592.899774793
592.899730648
592.899688551
592.899647396
592.899606508
592.8995665
592.899529556
592.899497215
592.899472879
592.899460024
592.899459492
592.899472052
592.899500748
592.899547247
592.899612666
592.899693114
592.899778842
592.899858135
592.89992019
592.899958616
592.899972802
592.899969344
592.899944031
592.899880873
592.899787033
592.899686129
592.899593581
592.898704206
592.898646765
592.898608187
592.898588313
592.898581726
592.898575613
592.898555431
592.898512217
592.898442948
592.898350294
592.898243923
592.898137919
592.898047012
592.89798294
592.89795413
592.897950851
592.897970433
592.898020569
592.89809859
592.898200961
592.898321371
592.898452911
592.898588575
592.898721847
592.898846747
592.898957822
592.89904988
592.899118023
592.899160266
592.899179486
592.899184568
592.899182746
592.899170363
592.899142358
592.899102262
592.899057713
592.899015164
592.898977398
592.89894381
592.898911831
592.89887999
592.898846966
592.898813164
592.898780659
592.898751234
592.898728542
592.898716046
592.898714943
592.898726838
592.898755638
592.898802218
592.89886561
592.898941607
592.89902032
592.899090319
592.899141692
592.899169684
592.899176568
592.899167626
592.899135543
592.899067161
592.898970741
592.89886969
592.898779224
592.898234071
592.898182928
592.898150174
592.898136224
592.898135997
592.898137093
592.898124706
592.89808911
592.898027462
592.897942065
592.897841253
592.897737354
592.897644545
592.897576538
592.897543763
592.897537245
592.897552816
592.897597355
592.897670289
592.897769935
592.897890714
592.898024897
592.898163549
592.898297846
592.898419991
592.898523744
592.898604316
592.898658358
592.898685305
592.898691464
592.898684766
592.898675672
592.898659588
592.898633311
592.89859875
592.898561672
592.898527252
592.898497684
592.898472253
592.898448557
592.89842493
592.898399502
592.898372261
592.898344764
592.898318634
592.898297402
592.89828455
592.898282399
592.898293091
592.898320881
592.898366475
592.898427084
592.898498555
592.898571374
592.898634298
592.898678051
592.89869896
592.898701341
592.898689129
592.898652612
592.89858185
592.898486313
592.898388348
592.898302888
592.897744591
592.897700359
592.897673585
592.897664821
592.897669458
592.897674742
592.897666944
592.897636371
592.897579205
592.897498024
592.897400211
592.897296567
592.897200517
592.897126734
592.897087052
592.897075294
592.897084975
592.897121504
592.897187105
592.897281928
592.897401616
592.897538202
592.897681249
592.897819707
592.897943613
592.898045294
592.898119355
592.898162423
592.898176905
592.898170844
592.89815141
592.898133918
592.898111708
592.898083933
592.898051984
592.898019943
592.897991739
592.897968975
592.897950826
592.897935065
592.897919839
592.897902788
592.897883308
592.897862152
592.897840522
592.897821643
592.89780916
592.897806525
592.897816326
592.897843099
592.897887635
592.897945718
592.898013299
592.898081534
592.89813939
592.898177993
592.898194264
592.898193896
592.898179928
592.898140911
592.898069834
592.897977425
592.897884701
592.897805964
592.897016741
592.896979795
592.896959405
592.896955259
592.896963574
592.896971577
592.896966193
592.896938597
592.896883493
592.896803882
592.896706761
592.896601983
592.896502048
592.896421251
592.89637238
592.896353997
592.896356207
592.896382397
592.896438376
592.89652589
592.89664212
592.896779433
592.896926415
592.897070138
592.897198603
592.897302306
592.897373953
592.897409013
592.897414224
592.897396208
592.897364412
592.8973357
592.897305459
592.897273768
592.897241967
592.897212973
592.897189636
592.897172946
592.897161889
592.897154302
592.897148084
592.897140411
592.897130026
592.897116711
592.897101018
592.897085733
592.897074705
592.897072331
592.89708174
592.897107795
592.897151489
592.89720772
592.897272454
592.897337539
592.897392215
592.897427833
592.897441581
592.897439833
592.89742538
592.897385602
592.897315646
592.897227568
592.897141297
592.897070146
592.895958496
592.895928309
592.895913911
592.895913632
592.895924492
592.895934134
592.895929691
592.895903364
592.895848685
592.895768984
592.895671343
592.895565206
592.895461923
592.89537434
592.89531587
592.895289466
592.895283204
592.895297703
592.89534184
592.895419457
592.895529247
592.895664513
592.89581349
592.895961842
592.896095825
592.896203963
592.896276475
592.89630814
592.896307958
592.896280815
592.896238567
592.896196048
592.896155624
592.896117722
592.896083663
592.896055658
592.896035703
592.896024165
592.896019784
592.896020245
592.896023057
592.896025
592.896024203
592.89601956
592.896010877
592.896000256
592.895991682
592.895990229
592.895999786
592.896025609
592.89606885
592.896124216
592.896187638
592.896251427
592.896305022
592.896339914
592.896353358
592.896351758
592.896338162
592.896299173
592.896231355
592.896148012
592.896068335
592.896004508
592.894608972
592.894584063
592.894574083
592.894576501
592.894588792
592.894599126
592.894594729
592.89456865
592.894514001
592.894434185
592.894336491
592.894230165
592.894125222
592.894032727
592.893966005
592.893930248
592.893915499
592.893918777
592.893949201
592.89401496
592.894115809
592.894246287
592.894394904
592.894546466
592.894685802
592.894799344
592.894874765
592.89490653
592.894904412
592.894872594
592.894822178
592.894766608
592.894713625
592.89466676
592.894627949
592.894598817
592.894580619
592.894573283
592.894574313
592.894581854
592.89459346
592.89460456
592.894612679
592.894616415
592.894615201
592.894610072
592.894604845
592.894604915
592.894615157
592.894641345
592.894684697
592.894740269
592.894803958
592.894868275
592.894922708
592.89495879
592.894973793
592.894973652
592.894962056
592.894924926
592.894859678
592.894780792
592.894706927
592.894649163
592.89299626
592.892974696
592.892967165
592.89297092
592.892983734
592.892993977
592.892989204
592.892963096
592.892908999
592.892830205
592.892734149
592.892629828
592.892525836
592.892431304
592.892358402
592.892313766
592.892290681
592.892283593
592.892300106
592.892352749
592.892443132
592.892566851
592.89271322
592.892866791
592.893011247
592.893130619
592.893209817
592.893243325
592.893241922
592.893208726
592.89315228
592.893085278
592.893018212
592.892959094
592.892912462
592.892879972
592.892862228
592.892857283
592.8928625
592.892876698
592.892896138
592.892915824
592.892932697
592.892944415
592.89295015
592.892951305
592.892950573
592.892953093
592.892964733
592.892991895
592.893035941
592.893092584
592.893157762
592.893223945
592.893280532
592.89331898
592.893336581
592.893338466
592.893329354
592.893294308
592.893231246
592.893155804
592.893086255