/*--------------------------------*- C++ -*----------------------------------*\
  =========                 |
  \\      /  F ield         | OpenFOAM: The Open Source CFD Toolbox
   \\    /   O peration     | Website:  https://openfoam.org
    \\  /    A nd           | Version:  6
     \\/     M anipulation  |
\*---------------------------------------------------------------------------*/
FoamFile
{
    version     2.0;
    format      ascii;
    class       volVectorField;
    location    "2e-08";
    object      U;
}
// * * * * * * * * * * * * * * * * * * * * * * * * * * * * * * * * * * * * * //

dimensions      [0 1 -1 0 0 0 0];

internalField   nonuniform List<vector> 
12288
(
(-87.6904229334 0 -0.58637829883)
(-87.6904410764 0 -0.586332810568)
(-87.6904614876 0 -0.586287722252)
(-87.6904835736 0 -0.586243466105)
(-87.6905064986 0 -0.58620030084)
(-87.6905295376 0 -0.586158395424)
(-87.6905522134 0 -0.586117885639)
(-87.6905742908 0 -0.5860789454)
(-87.690595878 0 -0.586041882956)
(-87.6906172469 0 -0.5860070004)
(-87.690638693 0 -0.585974638042)
(-87.6906603365 0 -0.585945255281)
(-87.6906819545 0 -0.585919260866)
(-87.6907032804 0 -0.585896920049)
(-87.6907243302 0 -0.585878370965)
(-87.6907450275 0 -0.585863558268)
(-87.6907651418 0 -0.585852385867)
(-87.6907844944 0 -0.585844747608)
(-87.6908028832 0 -0.585840393596)
(-87.6908200348 0 -0.585838955392)
(-87.6908356684 0 -0.585840297946)
(-87.6908493588 0 -0.585844334314)
(-87.6908606772 0 -0.585850548683)
(-87.6908693119 0 -0.585858432319)
(-87.6908753149 0 -0.585867411532)
(-87.6908790452 0 -0.585876946884)
(-87.6908812489 0 -0.585886458635)
(-87.690883323 0 -0.585895530541)
(-87.6908856041 0 -0.585904203397)
(-87.6908873734 0 -0.585912879213)
(-87.6908883547 0 -0.585922075404)
(-87.6908874932 0 -0.585932563085)
(-87.6908830814 0 -0.585945042548)
(-87.6908741515 0 -0.585960180352)
(-87.6908602892 0 -0.585978643434)
(-87.6908414379 0 -0.586001103038)
(-87.69081754 0 -0.586028515586)
(-87.6907889477 0 -0.586062764158)
(-87.690756489 0 -0.586106927063)
(-87.6907211548 0 -0.586164571662)
(-87.6906837753 0 -0.586237856739)
(-87.690644848 0 -0.586325849938)
(-87.6906051853 0 -0.58642394118)
(-87.6905655338 0 -0.586524058856)
(-87.6905265232 0 -0.58661706603)
(-87.690488589 0 -0.586695667261)
(-87.6904522846 0 -0.586756059734)
(-87.6904186089 0 -0.586797950523)
(-87.690388403 0 -0.586823095922)
(-87.6903621961 0 -0.586833843487)
(-87.6903408293 0 -0.58683239534)
(-87.6903260202 0 -0.586820827817)
(-87.6903181935 0 -0.586802471598)
(-87.6903167713 0 -0.586779409863)
(-87.6903209112 0 -0.586753150764)
(-87.6903289233 0 -0.586724778099)
(-87.6903388421 0 -0.586694750184)
(-87.6903488377 0 -0.586662756215)
(-87.6903584826 0 -0.586628585498)
(-87.6903674743 0 -0.586592030919)
(-87.6903755371 0 -0.586552927141)
(-87.6903839346 0 -0.586511502061)
(-87.6903944076 0 -0.586468238256)
(-87.6904074021 0 -0.586423652484)
(-87.6669382707 0 -0.691951486612)
(-87.6669538675 0 -0.691900782459)
(-87.6669742657 0 -0.691849231635)
(-87.6669984946 0 -0.691797462387)
(-87.6670253059 0 -0.691745997961)
(-87.6670536341 0 -0.691695300124)
(-87.6670827634 0 -0.691645746782)
(-87.6671124627 0 -0.691597696936)
(-87.66714289 0 -0.69155150726)
(-87.6671743158 0 -0.691507453287)
(-87.6672069015 0 -0.69146577131)
(-87.6672405592 0 -0.691426811526)
(-87.6672749659 0 -0.691391082973)
(-87.66730968 0 -0.691359066651)
(-87.6673442383 0 -0.691330966571)
(-87.6673783864 0 -0.691306792698)
(-87.6674119501 0 -0.691286333008)
(-87.6674448768 0 -0.691269567717)
(-87.6674768372 0 -0.691256268784)
(-87.6675072754 0 -0.691246056255)
(-87.6675354979 0 -0.691238617429)
(-87.6675607 0 -0.691233777054)
(-87.6675820071 0 -0.691231118824)
(-87.6675987897 0 -0.691230154707)
(-87.6676109841 0 -0.691230533363)
(-87.6676192058 0 -0.691232220492)
(-87.6676246841 0 -0.691234757775)
(-87.6676288068 0 -0.691238167415)
(-87.667633039 0 -0.691242676905)
(-87.6676387406 0 -0.691248546675)
(-87.6676459387 0 -0.691256385476)
(-87.667653215 0 -0.691267021691)
(-87.6676578516 0 -0.691281331259)
(-87.6676572908 0 -0.691299830403)
(-87.6676504419 0 -0.691322925563)
(-87.6676375991 0 -0.691351181249)
(-87.6676183138 0 -0.691385535702)
(-87.6675920634 0 -0.69142805273)
(-87.6675594356 0 -0.691481814382)
(-87.6675216203 0 -0.691550283528)
(-87.6674795043 0 -0.691635521497)
(-87.6674337471 0 -0.691736389328)
(-87.6673852026 0 -0.691847892284)
(-87.6673347949 0 -0.691961810113)
(-87.6672834009 0 -0.692068921523)
(-87.6672319551 0 -0.69216177749)
(-87.6671814571 0 -0.692236232592)
(-87.6671331938 0 -0.692291461858)
(-87.6670884724 0 -0.692328745066)
(-87.6670484375 0 -0.692350224915)
(-87.6670142459 0 -0.69235846649)
(-87.666987064 0 -0.69235624998)
(-87.6669676126 0 -0.692346517243)
(-87.6669562246 0 -0.692330951036)
(-87.6669513926 0 -0.692311250287)
(-87.6669498295 0 -0.692288747848)
(-87.6669483762 0 -0.692263801835)
(-87.6669446986 0 -0.692235993765)
(-87.666938766 0 -0.692204971291)
(-87.6669332765 0 -0.692170643967)
(-87.6669285484 0 -0.692132976673)
(-87.6669241969 0 -0.692092003041)
(-87.6669232325 0 -0.692047750272)
(-87.6669280979 0 -0.692000693845)
(-87.6802103455 0 -0.51282039863)
(-87.6802171551 0 -0.512762865871)
(-87.6802322553 0 -0.512702153204)
(-87.6802548144 0 -0.512639113317)
(-87.6802833251 0 -0.512574703429)
(-87.6803162633 0 -0.512509797406)
(-87.6803523488 0 -0.512445116581)
(-87.6803909749 0 -0.512381227846)
(-87.6804319693 0 -0.51231846985)
(-87.6804753772 0 -0.512256957584)
(-87.6805213459 0 -0.512196848233)
(-87.6805700026 0 -0.51213864954)
(-87.6806211155 0 -0.512083056408)
(-87.6806740903 0 -0.512030755846)
(-87.6807276906 0 -0.511981949813)
(-87.6807810089 0 -0.511936619081)
(-87.6808330895 0 -0.511894016684)
(-87.6808841576 0 -0.511854597608)
(-87.6809333826 0 -0.511817602357)
(-87.6809801093 0 -0.511782886264)
(-87.6810230038 0 -0.511750006546)
(-87.6810610149 0 -0.511718864025)
(-87.6810935329 0 -0.51168948539)
(-87.681120261 0 -0.511661806342)
(-87.6811414183 0 -0.511635895184)
(-87.681158097 0 -0.51161210861)
(-87.6811720372 0 -0.511590816755)
(-87.68118541 0 -0.511572463072)
(-87.6812003468 0 -0.511557547453)
(-87.6812183043 0 -0.511546752426)
(-87.6812394211 0 -0.511541080357)
(-87.6812622426 0 -0.511541345429)
(-87.6812835843 0 -0.511548553839)
(-87.6812986637 0 -0.511563928554)
(-87.6813037283 0 -0.511587831983)
(-87.6812997254 0 -0.511620681899)
(-87.6812876503 0 -0.51166343809)
(-87.6812662214 0 -0.511718483341)
(-87.6812346772 0 -0.511789520233)
(-87.6811944241 0 -0.511880234488)
(-87.6811466209 0 -0.511992468413)
(-87.6810919293 0 -0.51212438653)
(-87.6810312113 0 -0.512270036518)
(-87.6809658693 0 -0.512420567624)
(-87.6808972719 0 -0.512566135167)
(-87.6808267853 0 -0.512698501343)
(-87.6807559753 0 -0.512812621074)
(-87.6806862726 0 -0.512906445632)
(-87.6806195679 0 -0.512980338636)
(-87.6805577531 0 -0.513035659844)
(-87.6805033042 0 -0.513074765082)
(-87.680457942 0 -0.513100316957)
(-87.6804226638 0 -0.513115772107)
(-87.6803964182 0 -0.513122927851)
(-87.6803771978 0 -0.513123217033)
(-87.6803635484 0 -0.513117794139)
(-87.680348229 0 -0.513106268866)
(-87.6803284611 0 -0.513089495624)
(-87.6803051557 0 -0.513067237395)
(-87.6802815135 0 -0.513039449691)
(-87.6802598275 0 -0.513005842743)
(-87.6802394467 0 -0.512966975354)
(-87.680221615 0 -0.512923294515)
(-87.680211461 0 -0.512874160499)
(-87.6795541039 0 -0.144901635625)
(-87.6795412214 0 -0.144840610575)
(-87.6795392057 0 -0.144774293087)
(-87.6795490525 0 -0.144703576726)
(-87.6795697706 0 -0.144629821848)
(-87.6795987979 0 -0.14455432926)
(-87.6796336583 0 -0.1444778361)
(-87.6796724098 0 -0.144400497964)
(-87.6797142369 0 -0.144322139926)
(-87.6797596037 0 -0.144242340992)
(-87.6798100892 0 -0.144161187214)
(-87.6798661596 0 -0.144079623698)
(-87.6799266126 0 -0.143998892007)
(-87.6799896213 0 -0.143919252272)
(-87.6800535816 0 -0.143840544545)
(-87.680117886 0 -0.143763055283)
(-87.6801787171 0 -0.143685349886)
(-87.6802371031 0 -0.143609165994)
(-87.6802908648 0 -0.143532374606)
(-87.6803423921 0 -0.143455765753)
(-87.6803902744 0 -0.143379012803)
(-87.6804334308 0 -0.143302618926)
(-87.6804713187 0 -0.143227277159)
(-87.6805045962 0 -0.1431536995)
(-87.680534537 0 -0.143082581657)
(-87.6805627564 0 -0.143014764516)
(-87.6805911281 0 -0.142951092677)
(-87.6806221295 0 -0.142892306829)
(-87.680658268 0 -0.14283924054)
(-87.6807013592 0 -0.142793290419)
(-87.6807510547 0 -0.142755918521)
(-87.680804957 0 -0.142728544909)
(-87.680859316 0 -0.142712389353)
(-87.6809089723 0 -0.142707525526)
(-87.6809486109 0 -0.142716122467)
(-87.680974122 0 -0.142739927231)
(-87.6809897956 0 -0.142779403449)
(-87.6809973205 0 -0.142838107876)
(-87.6809941508 0 -0.142919961636)
(-87.6809792878 0 -0.143029357278)
(-87.6809520477 0 -0.14316875069)
(-87.6809120203 0 -0.143335510187)
(-87.6808603754 0 -0.143522473792)
(-87.6807997901 0 -0.143720639017)
(-87.6807312704 0 -0.143919395148)
(-87.6806557617 0 -0.144109401165)
(-87.6805747849 0 -0.144284576569)
(-87.6804891255 0 -0.144441025506)
(-87.6804014734 0 -0.144577514624)
(-87.6803147252 0 -0.144694520015)
(-87.680232211 0 -0.144793398046)
(-87.6801566892 0 -0.144875824348)
(-87.6800921534 0 -0.144944434752)
(-87.680037902 0 -0.144999574539)
(-87.6799927118 0 -0.145043084519)
(-87.6799508664 0 -0.145075272847)
(-87.6799065576 0 -0.145097180267)
(-87.6798573334 0 -0.145108134345)
(-87.6798054098 0 -0.145107674404)
(-87.6797535396 0 -0.145096460475)
(-87.6797040562 0 -0.145075104067)
(-87.6796576309 0 -0.145043129605)
(-87.6796140933 0 -0.145003203643)
(-87.6795780798 0 -0.144956294424)
(-87.679796635 0 0.184590137455)
(-87.6797552086 0 0.184621695832)
(-87.6797297127 0 0.184659865486)
(-87.6797201038 0 0.184703856191)
(-87.6797269514 0 0.184753182094)
(-87.679746224 0 0.184805576989)
(-87.6797717294 0 0.18486221984)
(-87.679800076 0 0.184923674508)
(-87.6798296928 0 0.184990362358)
(-87.6798614506 0 0.185062371586)
(-87.6799004711 0 0.185139565605)
(-87.6799477374 0 0.185222474516)
(-87.6800025223 0 0.185309914229)
(-87.6800596207 0 0.185402668453)
(-87.6801183599 0 0.185500775727)
(-87.680179128 0 0.185603495831)
(-87.6802351476 0 0.185711553612)
(-87.6802878334 0 0.185822059908)
(-87.6803349407 0 0.185935558843)
(-87.6803831234 0 0.186050355055)
(-87.6804301739 0 0.186166052288)
(-87.6804753143 0 0.186281538584)
(-87.6805176761 0 0.186395864898)
(-87.6805587345 0 0.186508226193)
(-87.6806004796 0 0.18661823626)
(-87.6806448555 0 0.186725511295)
(-87.6806932619 0 0.186829311541)
(-87.6807478096 0 0.186928592253)
(-87.6808112473 0 0.187022520166)
(-87.6808888593 0 0.187109082487)
(-87.6809790533 0 0.187187728878)
(-87.6810770954 0 0.187257034408)
(-87.6811764953 0 0.18731590717)
(-87.6812714145 0 0.187363440023)
(-87.6813578378 0 0.187397579118)
(-87.6814337504 0 0.187416817464)
(-87.6814996607 0 0.187417894265)
(-87.6815545047 0 0.187395471594)
(-87.681598306 0 0.187345808804)
(-87.6816359844 0 0.187265120254)
(-87.6816573196 0 0.187148948012)
(-87.6816590003 0 0.186999202447)
(-87.6816412421 0 0.186821741112)
(-87.6816131149 0 0.186625914937)
(-87.6815746713 0 0.186422922185)
(-87.6815241427 0 0.18622289024)
(-87.6814617166 0 0.186031974598)
(-87.6813856666 0 0.18585330796)
(-87.6812961817 0 0.185688293448)
(-87.6811993373 0 0.18553555727)
(-87.6810968741 0 0.185394215879)
(-87.6809927515 0 0.185262643934)
(-87.6808933155 0 0.185139682117)
(-87.6807996575 0 0.185026641295)
(-87.6807107246 0 0.184923135942)
(-87.6806197101 0 0.184830444286)
(-87.6805231294 0 0.184748960161)
(-87.6804201708 0 0.184679835874)
(-87.6803137609 0 0.184624823057)
(-87.6802078168 0 0.184585079905)
(-87.6801057477 0 0.184559777402)
(-87.6800107784 0 0.184549420109)
(-87.6799263371 0 0.184553357876)
(-87.6798543265 0 0.184567347426)
(-87.6817515815 0 0.320755347018)
(-87.6816784874 0 0.320716425316)
(-87.6816265052 0 0.32068900404)
(-87.6815936893 0 0.320672221518)
(-87.6815751514 0 0.320665468795)
(-87.6815695029 0 0.320666824033)
(-87.6815668556 0 0.320679747544)
(-87.6815652788 0 0.320703132785)
(-87.681566417 0 0.320738066407)
(-87.6815694206 0 0.320784687445)
(-87.6815772069 0 0.320842019897)
(-87.6815922703 0 0.320910720414)
(-87.6816140617 0 0.320991327389)
(-87.6816395647 0 0.321083507234)
(-87.6816689119 0 0.321186615592)
(-87.681701974 0 0.321299577827)
(-87.6817375598 0 0.321420676897)
(-87.6817753902 0 0.321546916531)
(-87.6818169875 0 0.321675537763)
(-87.6818633249 0 0.321804490825)
(-87.681911911 0 0.321932599774)
(-87.6819608098 0 0.322059031033)
(-87.6820080166 0 0.322183508207)
(-87.6820542664 0 0.322306146107)
(-87.6821007829 0 0.322427652147)
(-87.6821502935 0 0.322548630717)
(-87.6822061095 0 0.322669017304)
(-87.6822724141 0 0.322787801907)
(-87.682352762 0 0.322903743125)
(-87.6824499005 0 0.323015205834)
(-87.6825613083 0 0.32312203492)
(-87.682682234 0 0.32322348385)
(-87.6828060896 0 0.323318789296)
(-87.6829274181 0 0.323406107625)
(-87.6830419522 0 0.323483549793)
(-87.6831476236 0 0.323548901377)
(-87.6832443194 0 0.323599605496)
(-87.683333966 0 0.323631645653)
(-87.6834177642 0 0.323639023811)
(-87.683491784 0 0.32361585232)
(-87.6835505631 0 0.323559431267)
(-87.6835932794 0 0.323470141391)
(-87.6836222438 0 0.323353091288)
(-87.6836383155 0 0.323218058039)
(-87.6836422665 0 0.323076044523)
(-87.6836353891 0 0.322936498872)
(-87.6836159085 0 0.322804685519)
(-87.6835824565 0 0.322681157812)
(-87.6835351255 0 0.322564523232)
(-87.6834767282 0 0.32245186232)
(-87.6834083833 0 0.322339250148)
(-87.6833325011 0 0.322222674062)
(-87.6832511808 0 0.322100167986)
(-87.6831650802 0 0.321971160808)
(-87.6830709493 0 0.32183659094)
(-87.6829647797 0 0.321698009281)
(-87.6828435412 0 0.32155754563)
(-87.6827071992 0 0.321418262444)
(-87.6825591385 0 0.321284269003)
(-87.6824045699 0 0.321159890612)
(-87.6822495582 0 0.321048288889)
(-87.6821008527 0 0.320951510175)
(-87.6819648994 0 0.320871078956)
(-87.6818473221 0 0.320806326985)
(-87.6818634491 0 0.34392317299)
(-87.6817363757 0 0.343804267666)
(-87.6816345609 0 0.343703806932)
(-87.681554702 0 0.343621674599)
(-87.6814919983 0 0.343558255795)
(-87.6814405784 0 0.343514674738)
(-87.68139143 0 0.343488917287)
(-87.6813386983 0 0.343480162247)
(-87.6812861343 0 0.343488949993)
(-87.6812410821 0 0.343517378529)
(-87.681204215 0 0.343563785672)
(-87.681168151 0 0.34362425269)
(-87.6811366229 0 0.343698905393)
(-87.6811145943 0 0.343787568799)
(-87.6811011537 0 0.343887818932)
(-87.6810992458 0 0.343998067227)
(-87.6811102965 0 0.344115595972)
(-87.681135036 0 0.344237179695)
(-87.6811728056 0 0.344359926798)
(-87.6812209426 0 0.344481815813)
(-87.6812749481 0 0.344601859439)
(-87.6813304969 0 0.34471982036)
(-87.6813838166 0 0.344836327539)
(-87.6814335956 0 0.344952349631)
(-87.6814803353 0 0.345069004408)
(-87.6815280793 0 0.345186719006)
(-87.6815827271 0 0.345305358673)
(-87.6816517326 0 0.34542388039)
(-87.6817397123 0 0.345541247873)
(-87.6818480456 0 0.345656179719)
(-87.681973134 0 0.345768373835)
(-87.6821088933 0 0.345877447194)
(-87.6822482702 0 0.345982816349)
(-87.6823853904 0 0.346083065752)
(-87.6825162317 0 0.346176105983)
(-87.682638679 0 0.34625932639)
(-87.6827518115 0 0.346329913606)
(-87.6828556208 0 0.346384735262)
(-87.6829514377 0 0.346419946865)
(-87.6830406535 0 0.346430958693)
(-87.6831208672 0 0.346412346403)
(-87.6831859008 0 0.346363710767)
(-87.6832373226 0 0.34629362432)
(-87.6832784923 0 0.346211979013)
(-87.6833120465 0 0.346129885572)
(-87.6833400064 0 0.346056569507)
(-87.6833628672 0 0.345996494404)
(-87.6833800233 0 0.345949538924)
(-87.6833901438 0 0.345912589847)
(-87.6833973772 0 0.345879857521)
(-87.6834025058 0 0.345844652708)
(-87.6834019532 0 0.34580030264)
(-87.6833947528 0 0.345740457173)
(-87.6833774818 0 0.345660161277)
(-87.6833434486 0 0.345556997679)
(-87.6832868306 0 0.345430564528)
(-87.6832024536 0 0.34528205961)
(-87.6830865337 0 0.345115026333)
(-87.682939466 0 0.344934920885)
(-87.6827664743 0 0.344748423463)
(-87.6825768111 0 0.344562183698)
(-87.6823814679 0 0.344382266805)
(-87.6821914109 0 0.344213696806)
(-87.682016386 0 0.344059938452)
(-87.6798745868 0 0.347948008027)
(-87.6796680095 0 0.347740663036)
(-87.6794826666 0 0.347554995138)
(-87.6793190413 0 0.347394398263)
(-87.679172977 0 0.347260772502)
(-87.6790368946 0 0.347154671393)
(-87.6789046364 0 0.347075895236)
(-87.6787746992 0 0.347023013839)
(-87.678648679 0 0.346993940883)
(-87.6785291038 0 0.346986309662)
(-87.6784209764 0 0.347003848222)
(-87.6783258891 0 0.347043927293)
(-87.6782402873 0 0.347097416518)
(-87.6781677085 0 0.347163874984)
(-87.678112722 0 0.347242602897)
(-87.6780772654 0 0.347330634404)
(-87.6780639493 0 0.347426006715)
(-87.6780722528 0 0.347526267802)
(-87.6780997814 0 0.347629675437)
(-87.678142248 0 0.347735137895)
(-87.6781935568 0 0.347842065323)
(-87.6782479966 0 0.347950114301)
(-87.6782999253 0 0.348059617197)
(-87.6783473849 0 0.348170717941)
(-87.6783912166 0 0.348283586708)
(-87.6784377203 0 0.34839765494)
(-87.6784944235 0 0.348512345403)
(-87.6785696088 0 0.348626428266)
(-87.6786669758 0 0.348739298638)
(-87.6787868639 0 0.34885008453)
(-87.6789248115 0 0.348958566184)
(-87.6790739114 0 0.349064302285)
(-87.6792265635 0 0.349166695048)
(-87.6793765219 0 0.349264545659)
(-87.6795195628 0 0.349355954324)
(-87.6796531327 0 0.349438504057)
(-87.6797757368 0 0.349509557597)
(-87.6798865061 0 0.349566390519)
(-87.6799857008 0 0.349605775648)
(-87.6800754876 0 0.349623823258)
(-87.6801576925 0 0.349617073347)
(-87.6802299272 0 0.349584509235)
(-87.6802923659 0 0.349535745131)
(-87.6803499838 0 0.349484372467)
(-87.680405407 0 0.349442708813)
(-87.6804635431 0 0.349419491497)
(-87.680527896 0 0.349419722213)
(-87.6805958376 0 0.349445657624)
(-87.6806677703 0 0.349494160023)
(-87.6807478002 0 0.349555318697)
(-87.6808328715 0 0.349621030437)
(-87.6809212696 0 0.349681357522)
(-87.6810144193 0 0.349724579927)
(-87.6811038422 0 0.34974396368)
(-87.6811765568 0 0.349732462441)
(-87.6812217317 0 0.349682498005)
(-87.6812297757 0 0.349591579174)
(-87.6811902612 0 0.349460697912)
(-87.6810983329 0 0.349293878813)
(-87.6809561302 0 0.349097542253)
(-87.6807731209 0 0.348878767325)
(-87.6805597884 0 0.348645980785)
(-87.6803301952 0 0.348407673361)
(-87.6800980883 0 0.348172352357)
(-87.6813517535 0 0.346038099961)
(-87.6811019891 0 0.345793840161)
(-87.6808521929 0 0.345560059988)
(-87.6806068258 0 0.345345310209)
(-87.6803668461 0 0.345156366054)
(-87.6801325802 0 0.34499698498)
(-87.679904529 0 0.344869228061)
(-87.6796856015 0 0.344773613395)
(-87.6794781897 0 0.344709982215)
(-87.6792826216 0 0.34467600983)
(-87.6791014749 0 0.344668114866)
(-87.6789418427 0 0.344687182691)
(-87.67880795 0 0.344726382703)
(-87.6786970398 0 0.344779154551)
(-87.6786097702 0 0.344843665758)
(-87.6785483735 0 0.34491676661)
(-87.6785139782 0 0.344997129852)
(-87.6785039488 0 0.345082832316)
(-87.6785145801 0 0.345173232321)
(-87.6785413862 0 0.345268510444)
(-87.6785789664 0 0.345368842271)
(-87.6786218372 0 0.345473808217)
(-87.6786642639 0 0.345582746945)
(-87.678704206 0 0.345694341781)
(-87.6787431877 0 0.345807282672)
(-87.6787885107 0 0.345920041071)
(-87.678848037 0 0.346031377755)
(-87.6789286672 0 0.346139812188)
(-87.679032347 0 0.346245205929)
(-87.6791585057 0 0.346347566113)
(-87.6793029292 0 0.346447297878)
(-87.6794591349 0 0.34654442774)
(-87.6796196768 0 0.346638649844)
(-87.6797778274 0 0.346729118321)
(-87.6799284341 0 0.346814187109)
(-87.680067772 0 0.346891505936)
(-87.6801933749 0 0.346958071229)
(-87.6803038335 0 0.347010703524)
(-87.6803993343 0 0.347045964032)
(-87.6804827413 0 0.347059441789)
(-87.6805566313 0 0.347044841097)
(-87.6806174875 0 0.347002224232)
(-87.6806691906 0 0.346942510996)
(-87.6807187179 0 0.34688075018)
(-87.6807673858 0 0.346830464718)
(-87.6808217486 0 0.346800535557)
(-87.6808873845 0 0.346797357931)
(-87.6809598838 0 0.346823869557)
(-87.6810409713 0 0.346880970685)
(-87.6811403731 0 0.346960670082)
(-87.681260442 0 0.347055509259)
(-87.6814031078 0 0.347153643583)
(-87.6815593657 0 0.347245653733)
(-87.6817220043 0 0.347322938538)
(-87.6818881064 0 0.347375285179)
(-87.6820438375 0 0.347397833006)
(-87.6821699003 0 0.347386134271)
(-87.6822531376 0 0.347336239294)
(-87.6822807433 0 0.347243548164)
(-87.6822446745 0 0.347111000946)
(-87.6821481414 0 0.346942827226)
(-87.6820004235 0 0.346744889144)
(-87.6818116339 0 0.346522961723)
(-87.6815919837 0 0.346284243315)
(-87.6818727969 0 0.332298739902)
(-87.6816286829 0 0.332058261054)
(-87.6813572823 0 0.331807144788)
(-87.681066818 0 0.331556675796)
(-87.6807638178 0 0.331318093112)
(-87.6804540292 0 0.331101385485)
(-87.6801441944 0 0.330913557886)
(-87.6798419447 0 0.330759552076)
(-87.6795540896 0 0.330642973259)
(-87.6792856494 0 0.330563617248)
(-87.6790399635 0 0.330517028747)
(-87.6788211673 0 0.330501295373)
(-87.67863697 0 0.330513223928)
(-87.6784906539 0 0.33054510569)
(-87.6783788581 0 0.330591995815)
(-87.6782982178 0 0.330650618022)
(-87.6782462082 0 0.330719009023)
(-87.6782198964 0 0.330795308667)
(-87.6782136352 0 0.330878569559)
(-87.6782222917 0 0.33096971272)
(-87.6782419049 0 0.331068972684)
(-87.6782686294 0 0.331175295371)
(-87.6782984188 0 0.331286665257)
(-87.6783299427 0 0.331400483453)
(-87.67836565 0 0.331514436795)
(-87.6784127445 0 0.331626740558)
(-87.6784784881 0 0.331736088872)
(-87.6785672081 0 0.331841508653)
(-87.6786791283 0 0.33194350401)
(-87.6788129436 0 0.332042687953)
(-87.6789648953 0 0.332139630369)
(-87.6791290217 0 0.332234559969)
(-87.6792980186 0 0.332327327833)
(-87.6794644677 0 0.332417397491)
(-87.6796220272 0 0.332503383909)
(-87.6797658781 0 0.332582801517)
(-87.6798929727 0 0.332651833597)
(-87.6800019145 0 0.332706020015)
(-87.6800935749 0 0.332740980141)
(-87.6801725968 0 0.332751692895)
(-87.680241754 0 0.332729785109)
(-87.6802948713 0 0.332674551214)
(-87.6803404701 0 0.332596420887)
(-87.6803844129 0 0.332511679105)
(-87.6804251694 0 0.332436857179)
(-87.6804675843 0 0.332383586975)
(-87.6805209166 0 0.332355532217)
(-87.6805866904 0 0.332355900453)
(-87.6806608656 0 0.33238802966)
(-87.6807532687 0 0.332449104375)
(-87.6808719639 0 0.332533450728)
(-87.681021623 0 0.332633030239)
(-87.6812034922 0 0.332737077201)
(-87.681406899 0 0.33283945807)
(-87.6816204063 0 0.332933198967)
(-87.6818347222 0 0.33300935499)
(-87.6820357794 0 0.333063885099)
(-87.6822063208 0 0.33309324861)
(-87.6823322713 0 0.333092941041)
(-87.6824050787 0 0.333059462538)
(-87.6824093797 0 0.332981383739)
(-87.6823499427 0 0.332864579849)
(-87.6822392867 0 0.332710027252)
(-87.682079411 0 0.332518897568)
(-87.6823857776 0 0.307323243829)
(-87.6822140554 0 0.30714202154)
(-87.6819867277 0 0.306918744649)
(-87.6817083038 0 0.306664099181)
(-87.6813858087 0 0.30639099383)
(-87.6810285886 0 0.30611416648)
(-87.6806493027 0 0.305847978963)
(-87.6802627891 0 0.30560515338)
(-87.6798835578 0 0.305396624681)
(-87.6795241756 0 0.305229547184)
(-87.679195016 0 0.305104460929)
(-87.6789034533 0 0.305018386391)
(-87.6786554181 0 0.30496882624)
(-87.6784562277 0 0.304949003916)
(-87.6783050367 0 0.304953648811)
(-87.6781952909 0 0.304978461235)
(-87.6781196688 0 0.305019933881)
(-87.6780721463 0 0.305076737364)
(-87.678043485 0 0.305146211758)
(-87.6780285433 0 0.30522723665)
(-87.6780267454 0 0.305319494873)
(-87.6780360307 0 0.305421497683)
(-87.6780539489 0 0.305530014457)
(-87.6780796675 0 0.305641769606)
(-87.6781160056 0 0.305754112556)
(-87.6781688201 0 0.305865098391)
(-87.6782429437 0 0.305973451755)
(-87.6783398185 0 0.306079069667)
(-87.6784590788 0 0.306182712651)
(-87.6785992919 0 0.306284990366)
(-87.6787572217 0 0.306386000467)
(-87.6789273298 0 0.30648556377)
(-87.679102242 0 0.306583351688)
(-87.6792739019 0 0.30667881445)
(-87.6794350141 0 0.306770514055)
(-87.679580137 0 0.3068553665)
(-87.6797063021 0 0.306928344293)
(-87.6798129491 0 0.306983642968)
(-87.6799024251 0 0.307016425944)
(-87.6799812084 0 0.307021245058)
(-87.6800494554 0 0.306988459654)
(-87.6801001832 0 0.306916816418)
(-87.6801485252 0 0.306816655184)
(-87.6801924381 0 0.306704735838)
(-87.6802311892 0 0.306600167844)
(-87.6802698961 0 0.306518086831)
(-87.680311317 0 0.306462604985)
(-87.6803688067 0 0.306433423816)
(-87.6804411152 0 0.306432009851)
(-87.6805262654 0 0.306463999839)
(-87.6806333873 0 0.30652702059)
(-87.680772376 0 0.306613387742)
(-87.6809465469 0 0.306714794024)
(-87.6811523466 0 0.306826536543)
(-87.6813792373 0 0.306949678192)
(-87.6816175319 0 0.307074221959)
(-87.6818514414 0 0.307196441074)
(-87.6820668995 0 0.307311535916)
(-87.6822513202 0 0.307414228993)
(-87.6823963699 0 0.307499450416)
(-87.6824990354 0 0.30755420908)
(-87.6825508592 0 0.307569734832)
(-87.6825499375 0 0.307543410502)
(-87.6824984065 0 0.307458475764)
(-87.6827377815 0 0.277791284419)
(-87.6827077018 0 0.277749174572)
(-87.6826054609 0 0.277649969734)
(-87.6824278797 0 0.277496807549)
(-87.6821736164 0 0.277291609701)
(-87.6818464359 0 0.277044128194)
(-87.6814580601 0 0.276768714799)
(-87.6810268488 0 0.276481335338)
(-87.6805749679 0 0.276199779568)
(-87.6801258123 0 0.275940397422)
(-87.6797008311 0 0.27571426399)
(-87.6793166262 0 0.275525924802)
(-87.6789829284 0 0.275377314626)
(-87.6787063587 0 0.275266133259)
(-87.6784887051 0 0.275189512706)
(-87.678324079 0 0.275145079053)
(-87.6782011423 0 0.275129765075)
(-87.6781097473 0 0.275142031243)
(-87.6780457301 0 0.275178927786)
(-87.6780012967 0 0.275235139555)
(-87.6779717235 0 0.275307731289)
(-87.6779585397 0 0.275393245525)
(-87.677961554 0 0.275487948849)
(-87.6779783135 0 0.275588919241)
(-87.6780112786 0 0.275694272648)
(-87.67806447 0 0.275802497363)
(-87.6781400812 0 0.275912358155)
(-87.6782384022 0 0.276023393979)
(-87.6783592798 0 0.276135398136)
(-87.6785015018 0 0.276248048748)
(-87.6786622495 0 0.276360426988)
(-87.6788362263 0 0.276471463913)
(-87.6790158731 0 0.276580206378)
(-87.6791925157 0 0.276685627351)
(-87.6793580484 0 0.276785720023)
(-87.6795064476 0 0.276876523691)
(-87.6796347452 0 0.276952030241)
(-87.679742996 0 0.277006141491)
(-87.6798347356 0 0.277034618796)
(-87.6799167522 0 0.277031616216)
(-87.6799856314 0 0.276987007372)
(-87.6800369066 0 0.27690025185)
(-87.6800890259 0 0.276783219998)
(-87.6801334223 0 0.276652671181)
(-87.6801736562 0 0.276529888234)
(-87.6802125333 0 0.276432580989)
(-87.6802503893 0 0.276367126286)
(-87.6802972896 0 0.276328503192)
(-87.6803644712 0 0.276315333314)
(-87.6804472761 0 0.276327651174)
(-87.6805446512 0 0.276373247886)
(-87.6806664903 0 0.276442615078)
(-87.6808162529 0 0.276527605928)
(-87.6809958282 0 0.276618331454)
(-87.6811964402 0 0.276721279963)
(-87.6814109717 0 0.276834529369)
(-87.6816292826 0 0.276958850333)
(-87.6818417769 0 0.277091430027)
(-87.682040289 0 0.27722870358)
(-87.6822198535 0 0.277369431098)
(-87.6823806912 0 0.277506359616)
(-87.6825229597 0 0.277628489122)
(-87.6826387616 0 0.277723270491)
(-87.6827101865 0 0.277778673381)
(-87.6826237317 0 0.253811823812)
(-87.6826946227 0 0.253925804007)
(-87.6827125394 0 0.254002686579)
(-87.6826713465 0 0.254028897951)
(-87.6825548546 0 0.253992167255)
(-87.6823454042 0 0.253892721614)
(-87.6820471803 0 0.253730100751)
(-87.6816712427 0 0.253510248023)
(-87.6812356941 0 0.253246853015)
(-87.6807663305 0 0.25295856238)
(-87.6802916224 0 0.252665599754)
(-87.6798382062 0 0.252384723664)
(-87.6794255123 0 0.252128725155)
(-87.6790649948 0 0.251905848131)
(-87.678761934 0 0.251720832174)
(-87.678515232 0 0.251577164965)
(-87.6783178237 0 0.251476169343)
(-87.6781597005 0 0.251416644728)
(-87.6780348168 0 0.251394621076)
(-87.677941609 0 0.251404114435)
(-87.6778775656 0 0.251440009358)
(-87.6778380497 0 0.25149683882)
(-87.6778189831 0 0.251570133723)
(-87.6778184608 0 0.251655936746)
(-87.6778369027 0 0.251751555159)
(-87.6778777609 0 0.25185657258)
(-87.6779439238 0 0.251970470985)
(-87.6780365155 0 0.252090899435)
(-87.6781549442 0 0.252215415292)
(-87.6782972918 0 0.252342006018)
(-87.6784602986 0 0.252468652303)
(-87.6786383933 0 0.252593499365)
(-87.6788236501 0 0.252714955772)
(-87.6790067973 0 0.252831471732)
(-87.679179036 0 0.252940556312)
(-87.6793337484 0 0.253037703034)
(-87.679467513 0 0.253116457452)
(-87.67958001 0 0.253170826944)
(-87.6796748935 0 0.253196892405)
(-87.6797588504 0 0.253188024775)
(-87.6798257224 0 0.253132739678)
(-87.6798745759 0 0.25303180585)
(-87.6799248028 0 0.252898066907)
(-87.6799646498 0 0.252749567497)
(-87.6800021977 0 0.252610085999)
(-87.6800375231 0 0.252499376215)
(-87.6800737218 0 0.252425793229)
(-87.6801201136 0 0.25238269667)
(-87.6801902774 0 0.252364536052)
(-87.6802816547 0 0.252367464977)
(-87.6803912745 0 0.252397145754)
(-87.6805196018 0 0.252453175924)
(-87.6806733521 0 0.252519640377)
(-87.6808511385 0 0.252580453392)
(-87.6810407669 0 0.25263986413)
(-87.6812329527 0 0.252701246487)
(-87.6814246093 0 0.252769020672)
(-87.681606431 0 0.252851530141)
(-87.68177264 0 0.252948959025)
(-87.6819276509 0 0.253062779213)
(-87.6820769351 0 0.253196041103)
(-87.6822234531 0 0.253347524602)
(-87.6823703712 0 0.253509353192)
(-87.6825093534 0 0.253669458731)
(-87.682199691 0 0.238184882187)
(-87.6823160071 0 0.238393801618)
(-87.6824143921 0 0.238591878128)
(-87.6824760267 0 0.238759201754)
(-87.6824763566 0 0.238884390683)
(-87.6824078748 0 0.238952970322)
(-87.6822696607 0 0.238951259765)
(-87.6820446019 0 0.238877157927)
(-87.6817313018 0 0.238725622431)
(-87.6813460979 0 0.238500686454)
(-87.6809116896 0 0.238219794224)
(-87.6804554966 0 0.237906166891)
(-87.6800042272 0 0.23758360759)
(-87.6795778787 0 0.237273339972)
(-87.679189342 0 0.236991494819)
(-87.6788456438 0 0.236749795959)
(-87.6785495485 0 0.236555723732)
(-87.6783003667 0 0.236412127943)
(-87.6780956407 0 0.236316879964)
(-87.677933976 0 0.236262481466)
(-87.6778118104 0 0.236243036986)
(-87.6777245382 0 0.236256716183)
(-87.6776692307 0 0.236300254578)
(-87.6776417729 0 0.236367588461)
(-87.677634565 0 0.236452447717)
(-87.6776484001 0 0.236552133254)
(-87.6776929095 0 0.236666825788)
(-87.6777725703 0 0.236794727672)