/*--------------------------------*- C++ -*----------------------------------*\
  =========                 |
  \\      /  F ield         | OpenFOAM: The Open Source CFD Toolbox
   \\    /   O peration     | Website:  https://openfoam.org
    \\  /    A nd           | Version:  6
     \\/     M anipulation  |
\*---------------------------------------------------------------------------*/
FoamFile
{
    version     2.0;
    format      ascii;
    class       volVectorField;
    location    "5e-06";
    object      U;
}
// * * * * * * * * * * * * * * * * * * * * * * * * * * * * * * * * * * * * * //

dimensions      [0 1 -1 0 0 0 0];

internalField   nonuniform List<vector> 
8192
(
(-88.322 0 -2.66801566226e-12)
(-88.322 0 -1.37259482654e-13)
(-88.322 0 -2.4598534324e-12)
(-88.322 0 -4.36760680057e-12)
(-88.322 0 9.97075698908e-13)
(-88.322 0 -5.00214293034e-13)
(-88.322 0 -1.96352460423e-13)
(-88.322 0 3.69807372901e-13)
(-88.322 0 -2.08473759594e-12)
(-88.322 0 -4.65561466061e-12)
(-88.322 0 -4.05912273924e-12)
(-88.322 0 1.25271619604e-12)
(-88.322 0 -3.95825703867e-12)
(-88.322 0 -4.20936883751e-12)
(-88.322 0 -6.76939016196e-12)
(-88.322 0 1.94449407853e-12)
(-88.322 0 -9.89315778295e-13)
(-88.322 0 1.67368132711e-12)
(-88.322 0 -4.40498547503e-12)
(-88.322 0 -4.75424409939e-12)
(-88.322 0 2.44257570837e-12)
(-88.322 0 2.26804227899e-12)
(-88.322 0 3.73369527342e-13)
(-88.322 0 -1.62465021005e-12)
(-88.322 0 1.2996353508e-12)
(-88.322 0 9.19486560947e-13)
(-88.322 0 2.25671512281e-12)
(-88.322 0 2.50169635007e-12)
(-88.322 0 8.97921680497e-13)
(-88.322 0 -1.91161333329e-12)
(-88.322 0 4.04164638067e-12)
(-88.322 0 -3.34850891951e-13)
(-88.322 0 -1.74579630021e-12)
(-88.322 0 4.09024785995e-12)
(-88.322 0 -5.94632001947e-12)
(-88.322 0 -9.40306773561e-13)
(-88.322 0 4.5858882891e-13)
(-88.322 0 -6.78278176246e-12)
(-88.322 0 3.66365979983e-12)
(-88.322 0 -5.6973676068e-14)
(-88.322 0 2.55178716503e-12)
(-88.322 0 -2.63951061685e-13)
(-88.322 0 -1.83091068585e-12)
(-88.322 0 -4.33757158226e-13)
(-88.322 0 -3.37259206447e-12)
(-88.322 0 -5.24465209374e-13)
(-88.322 0 -5.21721022774e-14)
(-88.322 0 -7.13619308148e-14)
(-88.322 0 1.08232021794e-12)
(-88.322 0 -1.9755521095e-12)
(-88.322 0 -3.24185788192e-13)
(-88.322 0 -2.45105912544e-12)
(-88.322 0 -3.51021870581e-13)
(-88.322 0 4.07582262587e-12)
(-88.322 0 2.68897353586e-13)
(-88.322 0 -5.5086638467e-12)
(-88.322 0 2.61179229973e-12)
(-88.322 0 -3.42887066076e-12)
(-88.322 0 -6.47575438583e-13)
(-88.322 0 2.46872348583e-13)
(-88.322 0 3.01914640076e-12)
(-88.322 0 6.63613348063e-12)
(-88.322 0 5.36565374808e-12)
(-88.322 0 1.24500031188e-12)
(-88.322 0 -1.93645552653e-14)
(-88.322 0 3.12381288069e-14)
(-88.322 0 1.52123237077e-12)
(-88.322 0 -1.66062809223e-13)
(-88.322 0 -6.71224805584e-14)
(-88.322 0 -2.04468060138e-13)
(-88.322 0 -3.15374450042e-14)
(-88.322 0 4.29835372691e-15)
(-88.322 0 -4.44861403353e-14)
(-88.322 0 -1.90975900311e-12)
(-88.322 0 -8.28851809804e-14)
(-88.322 0 -3.70165959539e-12)
(-88.322 0 -3.01176455386e-14)
(-88.322 0 -4.73834195018e-15)
(-88.322 0 3.88076952331e-14)
(-88.322 0 1.19730336784e-12)
(-88.322 0 1.71411921823e-14)
(-88.322 0 2.8692143916e-13)
(-88.322 0 -2.63768827897e-12)
(-88.322 0 -4.95532502179e-14)
(-88.322 0 9.66470453076e-14)
(-88.322 0 2.50674727561e-14)
(-88.322 0 1.80585243441e-14)
(-88.322 0 4.02416089488e-15)
(-88.322 0 7.40550520583e-13)
(-88.322 0 -6.42325680895e-12)
(-88.322 0 3.51553949582e-12)
(-88.322 0 -9.91097937609e-14)
(-88.322 0 1.05893761026e-13)
(-88.322 0 -2.95037697541e-14)
(-88.322 0 -2.07017281897e-13)
(-88.322 0 -1.91426210756e-13)
(-88.322 0 1.21716023584e-13)
(-88.322 0 -3.1172534241e-12)
(-88.322 0 1.12952438646e-12)
(-88.322 0 -2.54440447127e-12)
(-88.322 0 -2.3399971965e-12)
(-88.322 0 1.06222576006e-12)
(-88.322 0 -2.2461676378e-12)
(-88.322 0 2.03445623861e-14)
(-88.322 0 1.52625318592e-12)
(-88.322 0 -4.364058384e-13)
(-88.322 0 -3.91194319705e-14)
(-88.322 0 4.75003701782e-13)
(-88.322 0 -2.7874269229e-12)
(-88.322 0 -4.82718692032e-12)
(-88.322 0 -2.81322880714e-12)
(-88.322 0 -3.6633028034e-13)
(-88.322 0 -6.73954040488e-12)
(-88.322 0 -5.81339803406e-13)
(-88.322 0 1.54500001519e-12)
(-88.322 0 -4.31913837162e-13)
(-88.322 0 -5.07443047368e-14)
(-88.322 0 -2.13927995128e-13)
(-88.322 0 -1.44010516669e-12)
(-88.322 0 1.22003560969e-11)
(-88.322 0 -2.37216385478e-12)
(-88.322 0 -2.54432223224e-12)
(-88.322 0 -5.68610227103e-12)
(-88.322 0 -3.21786742054e-13)
(-88.322 0 -1.77494260306e-12)
(-88.322 0 -1.27977594224e-11)
(-88.322 0 -7.1637928389e-12)
(-88.322 0 -2.02186661749e-12)
(-88.322 0 9.98492733482e-13)
(-88.322 0 8.43066835655e-13)
(-88.322 0 -1.04236936254e-12)
(-88.322 0 4.57182221563e-12)
(-88.322 0 6.98544348086e-13)
(-88.322 0 1.93066540675e-12)
(-88.322 0 3.36842506736e-13)
(-88.322 0 4.22690362908e-13)
(-88.322 0 -1.56575116208e-13)
(-88.322 0 4.40502330122e-12)
(-88.322 0 3.81482755863e-12)
(-88.322 0 -2.17431246099e-13)
(-88.322 0 2.76388313049e-12)
(-88.322 0 5.55238602972e-13)
(-88.322 0 5.97568349358e-12)
(-88.322 0 -1.77975198673e-12)
(-88.322 0 6.01269783219e-13)
(-88.322 0 5.83923463935e-13)
(-88.322 0 4.36442507222e-12)
(-88.322 0 3.25304812988e-12)
(-88.322 0 -2.41772324269e-12)
(-88.322 0 5.62704570803e-13)
(-88.322 0 1.94929010071e-12)
(-88.322 0 1.62168584115e-12)
(-88.322 0 1.20200350722e-12)
(-88.322 0 -8.6406940438e-13)
(-88.322 0 9.47811414437e-14)
(-88.322 0 6.44098346022e-13)
(-88.322 0 -4.16479434197e-13)
(-88.322 0 -2.7204858575e-12)
(-88.322 0 5.09075313345e-13)
(-88.322 0 3.18847402422e-13)
(-88.322 0 1.05168006286e-12)
(-88.322 0 3.60693218219e-12)
(-88.322 0 1.10915491713e-11)
(-88.322 0 1.69487679058e-14)
(-88.322 0 -1.73726338917e-12)
(-88.322 0 2.69811533566e-12)
(-88.322 0 5.55536931172e-12)
(-88.322 0 -6.24548782888e-12)
(-88.322 0 -4.5998613967e-12)
(-88.322 0 7.8654575654e-14)
(-88.322 0 -4.04202652447e-12)
(-88.322 0 -4.09547267306e-13)
(-88.322 0 -3.66995908375e-12)
(-88.322 0 -3.38236241886e-13)
(-88.322 0 -2.04992376301e-12)
(-88.322 0 -6.24660821805e-12)
(-88.322 0 1.05117176166e-12)
(-88.322 0 3.4281960937e-13)
(-88.322 0 -2.86318384301e-13)
(-88.322 0 2.56386472884e-12)
(-88.322 0 -6.04032252478e-12)
(-88.322 0 5.01897558501e-13)
(-88.322 0 -1.9479727707e-12)
(-88.322 0 -5.88034719163e-12)
(-88.322 0 -3.98498208896e-12)
(-88.322 0 -3.62496323079e-12)
(-88.322 0 -6.8214951745e-13)
(-88.322 0 -2.67779128598e-13)
(-88.322 0 1.0903314663e-13)
(-88.322 0 2.49649647214e-12)
(-88.322 0 1.41459318915e-13)
(-88.322 0 1.45691254595e-12)
(-88.322 0 2.60372841559e-12)
(-88.322 0 -4.83380132839e-13)
(-88.322 0 6.2555777299e-13)
(-88.322 0 2.82622040979e-12)
(-88.322 0 -2.61354246674e-12)
(-88.322 0 -2.33592721134e-14)
(-88.322 0 2.68486911193e-14)
(-88.322 0 1.7076375782e-12)
(-88.322 0 6.97062351825e-14)
(-88.322 0 3.57250141001e-12)
(-88.322 0 -1.01990606302e-13)
(-88.322 0 2.07792276551e-12)
(-88.322 0 2.13886837975e-12)
(-88.322 0 3.61270472229e-12)
(-88.322 0 3.79362814317e-14)
(-88.322 0 -2.61493196762e-12)
(-88.322 0 2.87537196845e-13)
(-88.322 0 -2.10133247255e-12)
(-88.322 0 2.65137383225e-12)
(-88.322 0 -1.12986453989e-13)
(-88.322 0 -2.77980249909e-13)
(-88.322 0 -4.82073059184e-12)
(-88.322 0 -1.86981539303e-13)
(-88.322 0 1.00860431249e-13)
(-88.322 0 1.10821450346e-12)
(-88.322 0 8.08587265807e-12)
(-88.322 0 -1.71334500456e-12)
(-88.322 0 -9.75353021142e-13)
(-88.322 0 5.52762963504e-14)
(-88.322 0 3.82251060363e-13)
(-88.322 0 2.00411069497e-12)
(-88.322 0 -1.02730484702e-12)
(-88.322 0 -3.14394921084e-14)
(-88.322 0 -9.3599929262e-13)
(-88.322 0 2.84461344186e-12)
(-88.322 0 3.61508222068e-12)
(-88.322 0 8.28639155102e-14)
(-88.322 0 5.51074249936e-12)
(-88.322 0 -1.53729862167e-12)
(-88.322 0 1.39190217973e-13)
(-88.322 0 -1.22731619155e-12)
(-88.322 0 -8.89994176688e-13)
(-88.322 0 1.66669910167e-13)
(-88.322 0 3.91233839605e-14)
(-88.322 0 6.10599180215e-12)
(-88.322 0 5.13643776181e-12)
(-88.322 0 2.79428833035e-12)
(-88.322 0 4.85272665588e-13)
(-88.322 0 7.01722096222e-12)
(-88.322 0 1.03825044798e-12)
(-88.322 0 -1.18437019818e-12)
(-88.322 0 4.63193650054e-13)
(-88.322 0 1.91389137326e-13)
(-88.322 0 2.05031303403e-12)
(-88.322 0 4.46082078978e-12)
(-88.322 0 -1.08260831801e-11)
(-88.322 0 2.05992747301e-12)
(-88.322 0 6.37734484706e-12)
(-88.322 0 2.84796774045e-12)
(-88.322 0 2.99427125819e-12)
(-88.322 0 -4.54107055798e-12)
(-88.322 0 1.26653004785e-11)
(-88.322 0 1.26856819261e-12)
(-88.322 0 3.18225880382e-12)
(-88.322 0 -3.40395225512e-12)
(-88.322 0 -1.20981122809e-12)
(-88.322 0 1.50524779434e-12)
(-88.322 0 -1.95255500905e-13)
(-88.322 0 -1.67701144328e-12)
(-88.322 0 -1.51508006325e-14)
(-88.322 0 -6.75376088824e-13)
(-88.322 0 2.81273273829e-12)
(-88.322 0 1.6279675293e-12)
(-88.322 0 2.64767618101e-13)
(-88.322 0 8.98514102621e-13)
(-88.322 0 -5.59194215659e-12)
(-88.322 0 -7.06682483554e-12)
(-88.322 0 -6.47383672972e-13)
(-88.322 0 3.69888388696e-14)
(-88.322 0 -3.28024581935e-15)
(-88.322 0 1.38563234755e-12)
(-88.322 0 5.19609060483e-13)
(-88.322 0 -2.04140233156e-13)
(-88.322 0 1.21267971419e-12)
(-88.322 0 -4.20917048525e-14)
(-88.322 0 -3.17993490291e-13)
(-88.322 0 7.66485266961e-13)
(-88.322 0 -3.19621992468e-12)
(-88.322 0 -6.51682214889e-14)
(-88.322 0 -1.6160157705e-14)
(-88.322 0 2.22677701053e-13)
(-88.322 0 8.33189401146e-13)
(-88.322 0 5.65905212252e-13)
(-88.322 0 7.06627861407e-13)
(-88.322 0 2.39309651092e-13)
(-88.322 0 1.34116813135e-12)
(-88.322 0 -2.89152393989e-12)
(-88.322 0 -4.0436804323e-12)
(-88.322 0 -1.50880012526e-11)
(-88.322 0 -2.15749787256e-12)
(-88.322 0 2.33447833652e-12)
(-88.322 0 -8.48625676601e-12)
(-88.322 0 -4.62148518062e-12)
(-88.322 0 2.7010394319e-12)
(-88.322 0 4.86325024076e-13)
(-88.322 0 7.06589941121e-13)
(-88.322 0 2.21957855479e-12)
(-88.322 0 2.41582327644e-14)
(-88.322 0 3.54708042234e-14)
(-88.322 0 2.78612474219e-14)
(-88.322 0 4.01795909338e-13)
(-88.322 0 2.72538322001e-12)
(-88.322 0 -2.1555395674e-13)
(-88.322 0 -1.47237109519e-12)
(-88.322 0 -1.34282410927e-13)
(-88.322 0 4.64811613591e-13)
(-88.322 0 2.86254173872e-12)
(-88.322 0 -2.15346608997e-12)
(-88.322 0 -1.2024724767e-12)
(-88.322 0 -7.32520170939e-14)
(-88.322 0 -2.5540105358e-12)
(-88.322 0 3.20216334131e-12)
(-88.322 0 -5.93036555344e-12)
(-88.322 0 4.5477913875e-12)
(-88.322 0 7.06179216443e-13)
(-88.322 0 4.52068384103e-12)
(-88.322 0 1.89868872628e-12)
(-88.322 0 -1.98531868195e-13)
(-88.322 0 -5.62670870555e-13)
(-88.322 0 -2.94235067185e-16)
(-88.322 0 3.96824776356e-13)
(-88.322 0 5.50669161549e-13)
(-88.322 0 -3.28987644268e-13)
(-88.322 0 4.12226321347e-12)
(-88.322 0 4.62026062828e-12)
(-88.322 0 -2.90237855098e-12)
(-88.322 0 4.09415157925e-13)
(-88.322 0 1.58669115763e-12)
(-88.322 0 -9.41188067338e-13)
(-88.322 0 3.51712951314e-12)
(-88.322 0 1.89647523549e-12)
(-88.322 0 -1.04105193843e-12)
(-88.322 0 6.02872917384e-12)
(-88.322 0 7.72418916524e-12)
(-88.322 0 1.83812429089e-12)
(-88.322 0 4.77886490318e-13)
(-88.322 0 -7.9802167692e-13)
(-88.322 0 1.10502458884e-12)
(-88.322 0 6.30248277041e-12)
(-88.322 0 4.87744306019e-12)
(-88.322 0 -1.54851060557e-12)
(-88.322 0 -4.4138792404e-12)
(-88.322 0 -4.56103017772e-12)
(-88.322 0 4.86076208665e-12)
(-88.322 0 -1.12684644274e-12)
(-88.322 0 -1.05806901931e-12)
(-88.322 0 6.05249832378e-12)
(-88.322 0 1.92451234646e-12)
(-88.322 0 -2.58610097712e-12)
(-88.322 0 -1.40523967561e-12)
(-88.322 0 1.06903118099e-13)
(-88.322 0 8.49242196455e-14)
(-88.322 0 3.57198830997e-13)
(-88.322 0 -3.3606659936e-13)
(-88.322 0 1.27326014573e-12)
(-88.322 0 4.13615841041e-13)
(-88.322 0 1.84767766222e-14)
(-88.322 0 2.77427648789e-12)
(-88.322 0 7.44666141819e-13)
(-88.322 0 -1.35441115585e-12)
(-88.322 0 9.19823797429e-14)
(-88.322 0 9.83589156553e-14)
(-88.322 0 -1.5016480019e-13)
(-88.322 0 -1.04542368626e-14)
(-88.322 0 -4.06112329305e-13)
(-88.322 0 2.72821331534e-12)
(-88.322 0 -1.51528189703e-12)
(-88.322 0 -3.07533513633e-14)
(-88.322 0 1.33431321646e-13)
(-88.322 0 1.94122220716e-12)
(-88.322 0 4.5626718532e-12)
(-88.322 0 -2.9018888806e-12)
(-88.322 0 -4.60295994508e-13)
(-88.322 0 4.14170982726e-12)
(-88.322 0 2.88982025581e-13)
(-88.322 0 9.27722131788e-13)
(-88.322 0 3.63478336145e-12)
(-88.322 0 -2.63437660542e-12)
(-88.322 0 2.75660855189e-12)
(-88.322 0 -5.41652197593e-12)
(-88.322 0 4.57172473321e-12)
(-88.322 0 -2.75917651279e-12)
(-88.322 0 2.6386826156e-12)
(-88.322 0 5.89901789805e-13)
(-88.322 0 -1.95542453019e-12)
(-88.322 0 1.8994637868e-13)
(-88.322 0 1.59439462124e-13)
(-88.322 0 -2.07053226187e-14)
(-88.322 0 -1.60756180516e-12)
(-88.322 0 -1.95433848569e-12)
(-88.322 0 -4.68329637477e-14)
(-88.322 0 -2.14969720881e-13)
(-88.322 0 3.10149636938e-13)
(-88.322 0 -9.45785831357e-13)
(-88.322 0 -3.23380250301e-12)
(-88.322 0 1.27537135526e-12)
(-88.322 0 2.15755131852e-14)
(-88.322 0 -5.65953200702e-15)
(-88.322 0 -1.18957308715e-12)
(-88.322 0 -1.13483200317e-12)
(-88.322 0 3.45805431933e-13)
(-88.322 0 -1.67833959421e-13)
(-88.322 0 -1.41114272548e-15)
(-88.322 0 -1.16815141929e-12)
(-88.322 0 -3.1653896977e-13)
(-88.322 0 3.36421873854e-12)
(-88.322 0 -1.51585587653e-12)
(-88.322 0 -3.25276066965e-14)
(-88.322 0 -1.57043389388e-12)
(-88.322 0 -3.49646954431e-13)
(-88.322 0 -5.07690140839e-13)
(-88.322 0 8.33932375272e-13)
(-88.322 0 -3.91405788809e-12)
(-88.322 0 -1.52115972943e-12)
(-88.322 0 6.58287655709e-12)
(-88.322 0 1.70940214175e-12)
(-88.322 0 -4.88328965306e-13)
(-88.322 0 1.84600277121e-14)
(-88.322 0 -1.6003843326e-12)
(-88.322 0 1.23895074669e-11)
(-88.322 0 -5.43170166373e-13)
(-88.322 0 1.29027769708e-14)
(-88.322 0 1.70794903265e-12)
(-88.322 0 1.44306539541e-13)
(-88.322 0 2.5327551338e-15)
(-88.322 0 7.94420755338e-13)
(-88.322 0 3.3648142658e-12)
(-88.322 0 -1.31626297247e-13)
(-88.322 0 -2.52861495377e-15)
(-88.322 0 4.92502643157e-15)
(-88.322 0 2.28628362992e-13)
(-88.322 0 1.37975263324e-14)
(-88.322 0 7.03965913837e-13)
(-88.322 0 7.64511530226e-14)
(-88.322 0 -2.90714973208e-14)
(-88.322 0 -1.56408793884e-12)
(-88.322 0 2.67117264363e-13)
(-88.322 0 2.20676893187e-12)
(-88.322 0 8.30899317019e-13)
(-88.322 0 -2.35388053748e-15)
(-88.322 0 6.30961027853e-12)
(-88.322 0 -1.39574492547e-12)
(-88.322 0 -6.6126202691e-15)
(-88.322 0 -5.54031364114e-16)
(-88.322 0 2.3025554784e-13)
(-88.322 0 -1.10428155538e-12)
(-88.322 0 4.34081332023e-12)
(-88.322 0 3.78886505423e-13)
(-88.322 0 -4.48954629978e-13)
(-88.322 0 9.13644766924e-13)
(-88.322 0 2.8241459914e-12)
(-88.322 0 -3.85803767666e-12)
(-88.322 0 -4.61018192457e-12)
(-88.322 0 2.91749171361e-12)
(-88.322 0 -3.99598508787e-13)
(-88.322 0 -3.12646005535e-12)
(-88.322 0 8.16301512706e-13)
(-88.322 0 -1.54476769463e-12)
(-88.322 0 2.87839966329e-12)
(-88.322 0 -2.39354496769e-12)
(-88.322 0 -5.69572677818e-12)
(-88.322 0 -5.32080421285e-12)
(-88.322 0 -5.93062064498e-13)
(-88.322 0 1.08135847293e-12)
(-88.322 0 6.27445600989e-13)
(-88.322 0 -9.02263506114e-13)
(-88.322 0 -4.52846860273e-12)
(-88.322 0 -3.07812034835e-14)
(-88.322 0 2.13493586739e-12)
(-88.322 0 3.97599526364e-12)
(-88.322 0 2.75563419816e-12)
(-88.322 0 -4.94072994623e-12)
(-88.322 0 -6.7274810955e-13)
(-88.322 0 1.38462957713e-12)
(-88.322 0 -6.04619772253e-12)
(-88.322 0 -1.93485498666e-12)
(-88.322 0 7.87597174078e-13)
(-88.322 0 2.74203869379e-12)
(-88.322 0 -5.05645832854e-14)
(-88.322 0 -4.41569772039e-13)
(-88.322 0 -4.64465908559e-13)
(-88.322 0 4.20948099875e-14)
(-88.322 0 3.25536719527e-12)
(-88.322 0 -3.33806907918e-13)
(-88.322 0 1.50557580951e-12)
(-88.322 0 -2.74306536435e-12)
(-88.322 0 -1.04497438263e-12)
(-88.322 0 2.69439284334e-12)
(-88.322 0 -4.55069769979e-14)
(-88.322 0 -4.34810081283e-13)
(-88.322 0 -3.21506207219e-12)
(-88.322 0 -3.58614772568e-13)
(-88.322 0 4.13006105436e-13)
(-88.322 0 -2.69404243355e-12)
(-88.322 0 1.28148132003e-12)
(-88.322 0 2.84093508009e-14)
(-88.322 0 -4.95074918191e-13)
(-88.322 0 -1.94928417273e-12)
(-88.322 0 -4.55707658807e-12)
(-88.322 0 1.66306637598e-12)
(-88.322 0 5.20251258863e-14)
(-88.322 0 -6.04472551215e-12)
(-88.322 0 -1.29488223594e-12)
(-88.322 0 -1.2202570905e-12)
(-88.322 0 -5.80817152725e-12)
(-88.322 0 2.61601142547e-12)
(-88.322 0 -2.75099597329e-12)
(-88.322 0 5.33339064243e-12)
(-88.322 0 -4.58444421312e-12)
(-88.322 0 2.78087708699e-12)
(-88.322 0 9.27051524722e-14)
(-88.322 0 4.27562037475e-14)
(-88.322 0 1.8950501667e-12)
(-88.322 0 2.01105481193e-14)
(-88.322 0 -5.4004037846e-14)
(-88.322 0 1.51010733065e-12)
(-88.322 0 1.54073581795e-12)
(-88.322 0 -8.77192457748e-13)
(-88.322 0 -3.34146402681e-14)
(-88.322 0 -1.97378227663e-12)
(-88.322 0 -1.26416661667e-12)
(-88.322 0 5.03933689631e-12)
(-88.322 0 1.02690440693e-11)
(-88.322 0 -1.11083203819e-12)
(-88.322 0 -3.0440297296e-14)
(-88.322 0 -4.70640610694e-14)
(-88.322 0 -3.44006053234e-13)
(-88.322 0 1.44063172232e-12)
(-88.322 0 -6.19162982647e-14)
(-88.322 0 1.43357497364e-13)
(-88.322 0 -1.41167906698e-14)
(-88.322 0 1.19724634627e-12)
(-88.322 0 3.58125666754e-13)
(-88.322 0 1.29112172924e-13)
(-88.322 0 1.50735542826e-12)
(-88.322 0 9.42653126499e-15)
(-88.322 0 1.56729272047e-12)
(-88.322 0 1.12261828389e-12)
(-88.322 0 -5.67576809939e-13)
(-88.322 0 2.4949877529e-12)
(-88.322 0 1.55685081005e-12)
(-88.322 0 1.53198234822e-13)
(-88.322 0 -2.83701781112e-12)
(-88.322 0 2.92436168371e-12)
(-88.322 0 1.93168746665e-12)
(-88.322 0 1.74063980008e-12)
(-88.322 0 -7.37910779434e-13)
(-88.322 0 -1.40837463875e-11)
(-88.322 0 2.63922240386e-12)
(-88.322 0 3.34270118788e-12)
(-88.322 0 -7.05627725644e-13)
(-88.322 0 -8.17172456032e-13)
(-88.322 0 3.34136296878e-12)
(-88.322 0 -8.80616480728e-13)
(-88.322 0 -3.35060648527e-12)
(-88.322 0 1.14236788358e-13)
(-88.322 0 5.41474103985e-13)
(-88.322 0 3.32724194383e-12)
(-88.322 0 -9.34249501987e-14)
(-88.322 0 2.48401232383e-12)
(-88.322 0 -5.67913199567e-13)
(-88.322 0 -8.5594448926e-13)
(-88.322 0 3.3299622303e-12)
(-88.322 0 1.58616319058e-12)
(-88.322 0 2.54598187986e-12)
(-88.322 0 -2.18617210079e-12)
(-88.322 0 1.6428176964e-12)
(-88.322 0 -3.11464275831e-12)
(-88.322 0 -4.14370388852e-13)
(-88.322 0 -2.97579429337e-12)
(-88.322 0 6.61758095753e-13)
(-88.322 0 -1.24084861462e-11)
(-88.322 0 -3.82863750551e-12)
(-88.322 0 4.73223228175e-14)
(-88.322 0 -2.25152104355e-12)
(-88.322 0 1.1062940245e-12)
(-88.322 0 -2.06870531334e-12)
(-88.322 0 -2.54642930159e-12)
(-88.322 0 1.6742743138e-12)
(-88.322 0 4.66863543271e-13)
(-88.322 0 -2.2253621981e-12)
(-88.322 0 -5.41913104211e-12)
(-88.322 0 -1.70363138945e-12)
(-88.322 0 -2.0672718701e-12)
(-88.322 0 1.43624774214e-12)
(-88.322 0 -1.89657601123e-12)
(-88.322 0 -1.57972238778e-12)
(-88.322 0 4.27215391492e-13)
(-88.322 0 -3.5223023858e-13)
(-88.322 0 -9.14958991798e-13)
(-88.322 0 -1.40304180458e-12)
(-88.322 0 -5.53193730417e-13)
(-88.322 0 4.93326444888e-13)
(-88.322 0 -3.38334599391e-12)
(-88.322 0 -1.51319863371e-12)
(-88.322 0 3.48559216223e-13)
(-88.322 0 -5.30131233936e-13)
(-88.322 0 -4.16947622692e-12)
(-88.322 0 -7.70062269593e-12)
(-88.322 0 -2.74339582599e-12)
(-88.322 0 -2.68769666671e-13)
(-88.322 0 -3.80919973664e-12)
(-88.322 0 -1.51753782467e-13)
(-88.322 0 -3.61780815285e-12)
(-88.322 0 -7.04262821202e-12)
(-88.322 0 -1.75640861668e-12)
(-88.322 0 -1.12448795155e-13)
(-88.322 0 -6.14022563349e-12)
(-88.322 0 -5.50420844842e-12)
(-88.322 0 -7.03581375797e-12)
(-88.322 0 -2.76598464824e-13)
(-88.322 0 9.80971226624e-12)
(-88.322 0 -4.92318762706e-12)
(-88.322 0 -4.34353541749e-12)
(-88.322 0 1.25910336468e-12)
(-88.322 0 -2.88324960191e-13)
(-88.322 0 -5.05112634123e-12)
(-88.322 0 -5.89121986896e-12)
(-88.322 0 1.00024595708e-11)
(-88.322 0 -4.48741514211e-12)
(-88.322 0 1.17327056371e-14)
(-88.322 0 -5.54279445583e-12)
(-88.322 0 6.82636628449e-12)
(-88.322 0 -1.77348281322e-13)
(-88.322 0 1.29115212192e-12)
(-88.322 0 -2.39654038794e-13)
(-88.322 0 -5.03636763447e-12)
(-88.322 0 -8.57453349644e-12)
(-88.322 0 -4.18023072093e-12)
(-88.322 0 5.93079142741e-12)
(-88.322 0 2.52381385046e-12)
(-88.322 0 8.71097021241e-12)
(-88.322 0 5.78763105907e-13)
(-88.322 0 -4.04942210924e-12)
(-88.322 0 3.50212710032e-12)
(-88.322 0 -2.43439104292e-13)
(-88.322 0 -2.86962558676e-13)
(-88.322 0 -1.59752547941e-12)
(-88.322 0 -4.76707586171e-13)
(-88.322 0 -1.81593847753e-13)
(-88.322 0 -1.9522962478e-13)
(-88.322 0 -4.55072931571e-12)
(-88.322 0 8.75350077634e-13)
(-88.322 0 -4.31605139693e-12)
(-88.322 0 2.51531528409e-12)
(-88.322 0 2.20342074946e-13)
(-88.322 0 -1.5010249048e-12)
(-88.322 0 -3.52269777299e-12)
(-88.322 0 -6.33721107099e-12)
(-88.322 0 -4.34566177632e-12)
(-88.322 0 -7.10650065125e-12)
(-88.322 0 -1.77081004472e-12)
(-88.322 0 4.09233930953e-13)
(-88.322 0 8.99467473168e-13)
(-88.322 0 -3.86923724003e-13)
(-88.322 0 -4.38227432928e-12)
(-88.322 0 -1.68873332799e-12)
(-88.322 0 2.94987497858e-12)
(-88.322 0 1.65539650429e-12)
(-88.322 0 5.1898631154e-12)
(-88.322 0 -3.46051179846e-12)
(-88.322 0 -3.42574397799e-13)
(-88.322 0 -2.99228971157e-13)
(-88.322 0 1.83705612444e-12)
(-88.322 0 4.80796886328e-12)
(-88.322 0 -5.4679583494e-13)
(-88.322 0 1.10225725487e-12)
(-88.322 0 4.62317719693e-13)
(-88.322 0 -1.21757303061e-12)
(-88.322 0 -3.07132951215e-13)
(-88.322 0 -4.24989480155e-14)
(-88.322 0 -4.41681387528e-12)
(-88.322 0 4.48915467639e-12)
(-88.322 0 3.09488167902e-12)
(-88.322 0 5.47567357489e-12)
(-88.322 0 8.22038927145e-12)
(-88.322 0 -4.89768505902e-12)
(-88.322 0 2.90235832055e-12)
(-88.322 0 3.61848629552e-13)
(-88.322 0 -1.17345969466e-13)
(-88.322 0 2.49690023379e-13)
(-88.322 0 -2.14006837329e-12)
(-88.322 0 1.81589152413e-12)
(-88.322 0 -1.55408112371e-12)
(-88.322 0 6.34696655837e-13)
(-88.322 0 2.98650192807e-12)
(-88.322 0 2.03972744054e-12)
(-88.322 0 1.25542519111e-12)
(-88.322 0 -2.36509487376e-12)
(-88.322 0 -3.65055895288e-12)
(-88.322 0 2.85476102312e-12)
(-88.322 0 -1.12944233562e-12)
(-88.322 0 3.14367181878e-12)
(-88.322 0 5.97358536325e-12)
(-88.322 0 4.09763958683e-12)
(-88.322 0 4.61819853634e-12)
(-88.322 0 -1.85266780239e-12)
(-88.322 0 -3.09562201848e-14)
(-88.322 0 -1.51838439739e-12)
(-88.322 0 5.50685392936e-12)
(-88.322 0 2.27759480347e-12)
(-88.322 0 -1.72412798228e-13)
(-88.322 0 -1.6336272203e-12)
(-88.322 0 -1.06144665346e-12)
(-88.322 0 1.86691726701e-12)
(-88.322 0 -9.15945671976e-13)
(-88.322 0 -3.0165822179e-14)
(-88.322 0 -1.24779775625e-12)
(-88.322 0 6.02264649662e-13)
(-88.322 0 2.80148800933e-12)
(-88.322 0 1.61702061101e-12)
(-88.322 0 3.81482586492e-13)
(-88.322 0 -4.73407050762e-12)
(-88.322 0 3.20822550582e-13)
(-88.322 0 -2.82292746114e-12)
(-88.322 0 -5.33592518537e-13)
(-88.322 0 -1.6061437935e-12)
(-88.322 0 -1.98555788959e-13)
(-88.322 0 -1.62099904174e-13)
(-88.322 0 8.18161300395e-13)
(-88.322 0 -4.13819274432e-13)
(-88.322 0 3.36441840813e-12)
(-88.322 0 9.78472270415e-14)
(-88.322 0 -3.17448962522e-13)
(-88.322 0 1.55018973086e-13)
(-88.322 0 3.23829676252e-12)
(-88.322 0 7.64455402558e-12)
(-88.322 0 1.33467708182e-12)
(-88.322 0 2.89907826292e-13)
(-88.322 0 3.81932012444e-12)
(-88.322 0 1.28549720057e-12)
(-88.322 0 3.65967619388e-12)
(-88.322 0 7.03611561474e-12)
(-88.322 0 1.4712943661e-12)
(-88.322 0 2.02983993787e-13)
(-88.322 0 7.68103588059e-12)
(-88.322 0 5.74123168509e-12)
(-88.322 0 7.26587518783e-12)
(-88.322 0 3.50410347172e-13)
(-88.322 0 -8.4868499409e-12)
(-88.322 0 4.86820048465e-12)
(-88.322 0 4.00344362219e-12)
(-88.322 0 -1.26163546115e-12)
(-88.322 0 -1.7980848921e-13)
(-88.322 0 4.69094959165e-12)
(-88.322 0 5.70900358278e-12)
(-88.322 0 -1.00396015963e-11)
(-88.322 0 4.7910045697e-12)
(-88.322 0 1.1177469857e-13)
(-88.322 0 5.22175972102e-12)
(-88.322 0 -6.82900818983e-12)
(-88.322 0 1.21363073236e-13)
(-88.322 0 -1.32031498549e-12)
(-88.322 0 -2.45633493804e-13)
(-88.322 0 4.69492651686e-12)
(-88.322 0 8.18974535257e-12)
(-88.322 0 2.79842164145e-12)
(-88.322 0 -5.42981468258e-12)
(-88.322 0 -1.0917843872e-12)
(-88.322 0 -1.22362463766e-11)
(-88.322 0 4.72665412786e-12)
(-88.322 0 1.46208143049e-12)
(-88.322 0 -5.75943643306e-13)
(-88.322 0 -4.42732278134e-12)
(-88.322 0 3.28061184891e-13)
(-88.322 0 -2.89272788794e-14)
(-88.322 0 3.69790965193e-13)
(-88.322 0 3.4643676234e-12)
(-88.322 0 -1.65545757194e-12)
(-88.322 0 4.40781782865e-12)
(-88.322 0 -7.72304760469e-13)
(-88.322 0 3.66646176076e-12)
(-88.322 0 -3.15869267422e-12)
(-88.322 0 -3.0210806176e-12)
(-88.322 0 -1.53865368377e-13)
(-88.322 0 1.42114088387e-12)
(-88.322 0 6.58013688705e-12)
(-88.322 0 2.17553287315e-13)
(-88.322 0 2.26847050534e-14)
(-88.322 0 -1.49263934653e-13)
(-88.322 0 -3.10857984103e-13)
(-88.322 0 -8.99260370072e-13)
(-88.322 0 5.35920052474e-13)
(-88.322 0 3.53872450399e-12)
(-88.322 0 1.82587481551e-12)
(-88.322 0 -4.13809272134e-12)
(-88.322 0 -1.6815979159e-12)
(-88.322 0 -4.89359728991e-12)
(-88.322 0 2.61494137712e-12)
(-88.322 0 -1.04180761539e-13)
(-88.322 0 1.13610962509e-13)
(-88.322 0 -1.84948071062e-12)
(-88.322 0 -5.09936753076e-12)
(-88.322 0 -1.05702748175e-12)
(-88.322 0 -1.1368528815e-12)
(-88.322 0 -2.57280855275e-13)
(-88.322 0 1.03296014475e-12)
(-88.322 0 1.26694590071e-13)
(-88.322 0 -7.01626147549e-13)
(-88.322 0 2.64192547095e-12)
(-88.322 0 -6.09549870405e-12)
(-88.322 0 -5.99153596063e-12)
(-88.322 0 -5.26938298868e-12)
(-88.322 0 5.84958047878e-12)
(-88.322 0 -2.29303202928e-12)
(-88.322 0 -6.95200446999e-12)
(-88.322 0 2.76596705247e-12)
(-88.322 0 8.46175075813e-13)
(-88.322 0 -1.4351793875e-12)
(-88.322 0 2.01775155313e-12)
(-88.322 0 -4.10177826134e-12)
(-88.322 0 -1.89416793197e-12)
(-88.322 0 -1.35727898328e-12)
(-88.322 0 -4.20285454652e-12)
(-88.322 0 -2.04289900664e-12)
(-88.322 0 -1.08852211353e-12)
(-88.322 0 2.55066564671e-12)
(-88.322 0 4.01114868542e-12)
(-88.322 0 -4.04189018081e-12)
(-88.322 0 9.05908275966e-13)
(-88.322 0 -4.10934133521e-12)
(-88.322 0 6.31623833038e-12)
(-88.322 0 -4.46669532886e-12)
(-88.322 0 -7.02239703411e-12)
(-88.322 0 -1.57813604016e-12)
(-88.322 0 -1.39777079083e-12)
(-88.322 0 5.85297909611e-13)
(-88.322 0 2.29206200392e-13)
(-88.322 0 -6.20264082345e-13)
(-88.322 0 9.83102096227e-14)
(-88.322 0 9.22522971512e-14)
(-88.322 0 -2.47043178057e-12)
(-88.322 0 -4.2021227697e-13)
(-88.322 0 -5.66480414991e-13)
(-88.322 0 -1.47521530478e-12)
(-88.322 0 -7.01898740766e-13)
(-88.322 0 1.55310413532e-12)
(-88.322 0 2.02537607104e-14)
(-88.322 0 -4.49171895335e-15)
(-88.322 0 1.56142091014e-12)
(-88.322 0 4.34921583859e-12)
(-88.322 0 -3.52269109225e-12)
(-88.322 0 -5.81087976956e-12)
(-88.322 0 1.22107468196e-12)
(-88.322 0 1.58645055671e-12)
(-88.322 0 1.93772845979e-13)
(-88.322 0 3.2461608463e-13)
(-88.322 0 -1.40607646245e-12)
(-88.322 0 8.14658519899e-14)
(-88.322 0 -1.99111702223e-13)
(-88.322 0 -1.10340690759e-13)
(-88.322 0 -1.26030448737e-12)
(-88.322 0 -3.39165053638e-13)
(-88.322 0 1.23236184777e-12)
(-88.322 0 1.144279894e-14)
(-88.322 0 -1.1584261364e-13)
(-88.322 0 -1.56213603215e-12)
(-88.322 0 -4.1343517864e-13)
(-88.322 0 -3.86769267059e-12)
(-88.322 0 -7.98191894776e-14)
(-88.322 0 7.82305835808e-16)
(-88.322 0 1.91939875365e-13)
(-88.322 0 -1.39985132539e-15)
(-88.322 0 -1.33808736693e-14)
(-88.322 0 -2.38536472471e-14)
(-88.322 0 -5.49889302183e-14)
(-88.322 0 -2.97814186955e-12)
(-88.322 0 -4.61742046478e-14)
(-88.322 0 1.33417301491e-14)
(-88.322 0 -2.45786492275e-14)
(-88.322 0 5.04151604243e-15)
(-88.322 0 4.66342351062e-13)
(-88.322 0 3.89694445393e-15)
(-88.322 0 6.35141254716e-15)
(-88.322 0 2.20379901136e-14)
(-88.322 0 -3.2728537161e-13)
(-88.322 0 -1.34551804914e-13)
(-88.322 0 -2.77601893911e-14)
(-88.322 0 9.84826505812e-15)
(-88.322 0 -5.12422554805e-15)
(-88.322 0 3.09115250595e-14)
(-88.322 0 4.85761583212e-13)
(-88.322 0 -1.63873030367e-14)
(-88.322 0 -3.64749860708e-15)
(-88.322 0 -2.16729015109e-14)
(-88.322 0 -5.59695883156e-15)
(-88.322 0 -1.59239039772e-13)
(-88.322 0 1.00851021749e-14)
(-88.322 0 -1.87089089889e-15)
(-88.322 0 2.57090501089e-13)
(-88.322 0 4.17340591644e-12)
(-88.322 0 4.69036347389e-12)
(-88.322 0 1.49453893641e-12)
(-88.322 0 -1.17207146997e-12)
(-88.322 0 4.43098375316e-12)
(-88.322 0 -3.37082270207e-12)
(-88.322 0 1.19665590014e-12)
(-88.322 0 4.14239286287e-12)
(-88.322 0 -8.0540051278e-14)
(-88.322 0 5.98192688506e-13)
(-88.322 0 6.8212542913e-13)
(-88.322 0 2.87392459915e-12)
(-88.322 0 1.68967625399e-12)
(-88.322 0 5.71875747055e-12)
(-88.322 0 2.7778147422e-12)
(-88.322 0 2.22153808318e-12)
(-88.322 0 5.41952351236e-12)
(-88.322 0 7.08666617787e-12)
(-88.322 0 9.22319196848e-16)
(-88.322 0 -3.57714659791e-13)
(-88.322 0 -2.50452983283e-12)
(-88.322 0 -1.0903502853e-12)
(-88.322 0 -4.22917037765e-13)
(-88.322 0 1.04810577016e-12)
(-88.322 0 7.4621758019e-14)
(-88.322 0 -4.17052924407e-12)
(-88.322 0 3.80108611292e-13)
(-88.322 0 -3.04464878061e-12)
(-88.322 0 -9.82189775702e-13)
(-88.322 0 1.68557173596e-13)
(-88.322 0 2.04461595812e-12)
(-88.322 0 5.2330191288e-13)
(-88.322 0 8.70849231466e-14)
(-88.322 0 3.13823143403e-12)
(-88.322 0 -9.0982893236e-13)
(-88.322 0 3.35222661299e-13)
(-88.322 0 2.24111332484e-13)
(-88.322 0 -3.74628772508e-12)
(-88.322 0 3.11608316458e-12)
(-88.322 0 3.30587682707e-12)
(-88.322 0 1.68237052995e-12)
(-88.322 0 -9.37942504936e-12)
(-88.322 0 3.96226106324e-12)
(-88.322 0 3.86840035909e-12)
(-88.322 0 -2.70974143166e-12)
(-88.322 0 -3.85810391955e-13)
(-88.322 0 1.03075502841e-12)
(-88.322 0 -6.13463083885e-13)
(-88.322 0 5.4861588631e-12)
(-88.322 0 3.66928009422e-12)
(-88.322 0 2.33895989322e-13)
(-88.322 0 9.38249198181e-13)
(-88.322 0 1.9579068504e-12)
(-88.322 0 2.19314839823e-13)
(-88.322 0 2.89707968511e-13)
(-88.322 0 3.90071766346e-14)
(-88.322 0 1.02930878825e-12)
(-88.322 0 -9.34708026925e-13)
(-88.322 0 1.35636183931e-12)
(-88.322 0 -6.7339802372e-12)
(-88.322 0 7.8652317374e-14)
(-88.322 0 5.96846791254e-12)
(-88.322 0 1.34315645281e-12)
(-88.322 0 1.74201640994e-12)
(-88.322 0 1.85336796329e-12)
(-88.322 0 -6.01643688524e-12)
(-88.322 0 -1.84740168158e-12)
(-88.322 0 6.70168289287e-13)
(-88.322 0 1.27597386752e-12)
(-88.322 0 3.42201151159e-12)
(-88.322 0 9.60247103825e-13)
(-88.322 0 -2.35141186104e-12)