/*--------------------------------*- C++ -*----------------------------------*\
  =========                 |
  \\      /  F ield         | OpenFOAM: The Open Source CFD Toolbox
   \\    /   O peration     | Website:  https://openfoam.org
    \\  /    A nd           | Version:  6
     \\/     M anipulation  |
\*---------------------------------------------------------------------------*/
FoamFile
{
    version     2.0;
    format      ascii;
    class       volScalarField;
    location    "3.7e-05";
    object      p;
}
// * * * * * * * * * * * * * * * * * * * * * * * * * * * * * * * * * * * * * //

dimensions      [1 -1 -2 0 0 0 0];

internalField   nonuniform List<scalar> 
8192
(
6000000.00129
5999999.99941
6000000.00058
6000000.00021
6000000.0019
5999999.99839
6000000.00044
5999999.99995
6000000.00004
6000000.00007
6000000.0001
6000000.00004
6000000.00072
6000000.00018
6000000.00032
6000000.00012
6000000.00021
5999999.99982
5999999.99957
6000000.00012
5999999.99964
5999999.99915
6000000.0005
6000000.00009
5999999.99985
6000000.00002
5999999.99928
5999999.99937
5999999.99876
6000000.00016
5999999.99911
5999999.99989
5999999.99849
5999999.99668
6000000.00481
6000000.00584
5999999.99947
6000000.00484
5999999.99813
5999999.99871
6000000.00072
5999999.99959
6000000.00004
6000000.00003
6000000.0002
6000000.00011
6000000.00001
6000000.00003
5999999.9999
6000000.00022
5999999.9992
5999999.99952
6000000.002
5999999.99762
5999999.9984
6000000.00225
6000000.00045
6000000.00189
5999999.99989
6000000.00294
5999999.99742
5999999.99784
5999999.99738
5999999.99977
6000000.00013
6000000.00056
5999999.99992
6000000.00139
5999999.99848
6000000.00121
5999999.99962
5999999.99938
6000000.00175
6000000.00428
6000000.00531
5999999.99726
5999999.99391
6000000.0064
6000000.00353
5999999.9965
5999999.9981
5999999.99549
6000000.00313
6000000.0039
5999999.99907
5999999.99886
6000000.00415
6000000.00499
5999999.99853
5999999.99889
5999999.99899
5999999.99951
5999999.99828
6000000.00149
5999999.99886
6000000.00062
6000000.00057
5999999.99966
6000000.00184
5999999.9992
6000000.00002
5999999.99997
5999999.99982
6000000.00001
5999999.9998
6000000.00012
6000000.00007
6000000.00001
5999999.99998
5999999.99998
6000000.00002
6000000.00001
5999999.99997
6000000.00021
6000000.00001
6000000.00045
6000000.00033
5999999.99972
5999999.99997
6000000.00001
5999999.99961
5999999.99942
6000000.00003
5999999.99999
6000000.00015
5999999.99997
6000000.00021
6000000.00025
6000000.00487
6000000.00045
5999999.99982
6000000.00049
6000000.00044
5999999.9998
6000000.00003
5999999.99997
6000000.00003
6000000.00033
5999999.99955
6000000.00211
6000000.00082
6000000.00172
6000000.00276
5999999.99722
5999999.99863
5999999.99842
6000000.00296
6000000.00171
6000000.00016
5999999.99888
5999999.99895
6000000.00103
5999999.99609
6000000.00245
5999999.99663
5999999.99824
5999999.99992
5999999.99984
5999999.99892
5999999.99953
6000000.00001
5999999.99981
6000000.0005
6000000.00064
5999999.99985
6000000.00197
6000000.00008
6000000.00008
5999999.99965
5999999.99996
5999999.99944
6000000.00133
6000000.00336
6000000.00246
6000000.00194
6000000.00226
6000000.00306
6000000.00097
5999999.99697
6000000.00104
6000000.00127
5999999.9985
6000000.00106
5999999.99906
6000000.00165
6000000.00159
6000000.00261
5999999.99426
5999999.99446
6000000.00263
6000000.00451
6000000.00257
5999999.9999
5999999.99998
6000000.00013
6000000.00004
5999999.99993
6000000.00001
5999999.99999
6000000.00001
6000000.00015
6000000.00001
6000000.0001
5999999.99945
5999999.99889
6000000.00081
5999999.99995
5999999.99999
6000000.00002
5999999.99998
6000000.00004
6000000.00007
6000000.00002
5999999.99959
5999999.99998
6000000.00003
5999999.9999
5999999.99998
6000000.00013
5999999.99868
5999999.99925
6000000.00104
5999999.99868
6000000.00051
6000000.0052
5999999.99613
5999999.99739
6000000.00263
6000000.00613
5999999.99282
5999999.99773
6000000.00204
6000000.00285
5999999.99772
6000000.0025
6000000.00016
6000000.00296
5999999.99918
6000000.00392
6000000.00502
5999999.99543
6000000.00033
6000000.00319
5999999.99885
6000000.00433
5999999.99554
5999999.9998
6000000.00229
6000000.00187
6000000.00253
6000000.00093
6000000.00111
6000000.00091
5999999.99919
5999999.99964
5999999.99986
5999999.99945
5999999.99904
5999999.99996
5999999.99889
6000000.00209
5999999.99919
6000000.00001
5999999.99978
6000000.00003
5999999.99993
6000000.00008
6000000.0002
6000000.00049
5999999.99929
5999999.99999
6000000.00007
5999999.99993
6000000.00066
5999999.99828
5999999.99791
6000000.00355
6000000.00242
5999999.99545
5999999.99693
5999999.99848
5999999.99731
5999999.99872
5999999.99669
6000000.00061
6000000.00194
5999999.9986
6000000.0003
5999999.99946
6000000.00044
6000000.00007
5999999.99974
6000000.00059
5999999.99904
6000000.00065
5999999.99976
6000000.00001
6000000.00011
6000000.00001
6000000.00001
6000000.00002
6000000.00003
5999999.99973
6000000.00063
5999999.99851
5999999.99924
5999999.99979
5999999.99956
6000000.00282
5999999.99722
5999999.99647
6000000.00187
6000000.0025
5999999.99945
6000000.00293
5999999.9988
6000000.00351
5999999.99641
5999999.99835
5999999.9971
6000000.00334
6000000.00068
5999999.99835
6000000.00071
6000000.00009
6000000.00032
6000000.00003
5999999.9998
6000000.00003
6000000.00011
5999999.99959
6000000.00139
6000000.00108
6000000.0005
6000000.00032
6000000.00018
5999999.99906
5999999.99865
6000000.00002
6000000.00005
6000000.00001
5999999.99966
5999999.99916
6000000.00214
5999999.99856
6000000.0005
5999999.99822
5999999.99648
5999999.99668
6000000.00158
5999999.99729
5999999.9975
6000000.00509
5999999.99986
6000000.00305
6000000.00097
5999999.99788
6000000.00291
5999999.99844
6000000.00185
5999999.99986
5999999.99999
6000000.00022
6000000.00001
6000000.0002
6000000.00005
6000000.00012
6000000.00076
5999999.99957
6000000.00143
6000000.00042
5999999.99925
6000000.00138
5999999.99892
5999999.99993
6000000.00341
6000000.00022
6000000.00112
6000000.00479
5999999.9948
5999999.99609
5999999.99652
5999999.99903
5999999.99972
6000000.00007
6000000.00085
5999999.99706
5999999.99459
6000000.00198
5999999.99587
5999999.99773
6000000.00435
5999999.99962
5999999.99889
6000000.00048
5999999.99853
5999999.99868
6000000.00383
5999999.99548
5999999.99764
5999999.9963
5999999.99997
6000000.00399
6000000.0004
5999999.9973
5999999.99437
6000000.00155
6000000.00087
6000000.00148
5999999.99921
5999999.99806
6000000.0011
5999999.99633
5999999.99633
5999999.99936
6000000.00339
5999999.99931
5999999.99938
5999999.99839
6000000.00063
6000000.00092
5999999.99981
6000000.00003
5999999.9998
5999999.9999
6000000.0002
5999999.99998
5999999.99998
6000000.00001
5999999.99987
6000000.00074
5999999.99797
6000000.00043
6000000
6000000.00003
5999999.99919
6000000.0006
6000000.00012
5999999.99957
6000000.00012
6000000.00058
5999999.99972
5999999.99995
6000000.0001
6000000
5999999.99881
5999999.99839
5999999.99925
5999999.9987
6000000.00078
6000000.00067
6000000.00008
6000000
5999999.99998
6000000.00086
5999999.99906
6000000.00151
6000000.00181
5999999.99453
6000000.0038
6000000.0027
6000000.00015
6000000.0012
5999999.99947
6000000.001
5999999.99989
5999999.99997
6000000.00016
6000000.00002
5999999.99998
5999999.99936
6000000.00054
5999999.99907
5999999.99969
6000000.00031
5999999.99894
6000000.00086
5999999.99902
6000000.00055
6000000.0003
5999999.99869
5999999.99872
6000000.00298
6000000.00464
5999999.99966
5999999.99841
6000000.00017
6000000.0019
5999999.99951
5999999.99915
6000000.00203
5999999.99948
6000000.00004
6000000.00001
6000000.00003
6000000.00098
5999999.99925
6000000.00177
5999999.99946
5999999.99962
6000000.00022
6000000.00007
5999999.99986
6000000.00158
6000000.00069
6000000.00096
6000000.00002
5999999.99925
5999999.99989
5999999.99568
5999999.99676
6000000.00115
5999999.99974
5999999.99936
5999999.99975
5999999.99929
5999999.99991
5999999.99991
6000000.00009
5999999.9996
6000000.0001
6000000.00009
6000000.00001
6000000.00006
5999999.99977
6000000.00018
6000000.00007
5999999.99991
5999999.99989
5999999.9999
6000000.00002
6000000.00005
5999999.9999
5999999.99989
5999999.99983
6000000.00001
5999999.99988
5999999.99993
5999999.99988
5999999.99993
6000000.00001
6000000.00001
5999999.99988
5999999.99998
6000000
5999999.99998
5999999.99939
6000000.00085
5999999.99902
5999999.99983
5999999.99978
5999999.99998
6000000.00003
5999999.99998
6000000.00001
6000000.00004
6000000.0002
6000000.00011
6000000.00001
6000000.00001
5999999.99992
5999999.99919
6000000.00145
6000000.0001
5999999.99974
5999999.99645
5999999.99472
6000000.00166
6000000.00256
6000000.00057
6000000.00392
5999999.99784
6000000.003
5999999.99561
6000000.00057
5999999.99779
6000000.0008
6000000.00071
6000000.00101
6000000
6000000.00101
5999999.99902
6000000.00003
6000000.00001
6000000.00002
6000000.00018
6000000.00003
6000000.00007
5999999.9996
6000000.00019
6000000.00003
6000000
6000000.00001
5999999.99993
5999999.99994
6000000.00002
6000000.00002
5999999.99954
5999999.99932
5999999.99947
5999999.9996
5999999.99994
5999999.99974
5999999.99941
6000000.00058
6000000.00059
5999999.99987
6000000.00108
5999999.99912
5999999.99715
6000000.00476
6000000.00289
6000000.00086
6000000.00359
5999999.9983
5999999.99981
6000000.00005
5999999.99999
6000000.00004
6000000.00003
6000000.00022
6000000.00011
6000000.00075
5999999.99949
5999999.99985
5999999.99999
6000000.00004
6000000.00017
6000000.00161
5999999.99914
5999999.99872
6000000.00357
6000000.00128
6000000.00144
6000000.00067
5999999.99851
5999999.99888
6000000.00425
6000000.00283
6000000.00277
5999999.99885
5999999.99821
6000000.00137
5999999.99982
5999999.99973
5999999.99914
6000000.00117
6000000.00051
6000000.00015
6000000.00028
5999999.99988
6000000.00018
5999999.99986
6000000.00026
6000000.0005
6000000.00025
6000000.00004
5999999.9999
5999999.99908
6000000.00226
6000000.00065
5999999.99683
5999999.99684
6000000.00437
6000000.00211
6000000.00052
5999999.9994
6000000.00122
5999999.99913
6000000.00069
6000000.00301
6000000.00217
5999999.9976
6000000.0027
6000000.00184
6000000.00383
5999999.99565
5999999.99831
6000000.00226
6000000.0009
5999999.99399
5999999.99926
6000000.00045
6000000.00448
5999999.99805
6000000.00235
6000000.00018
6000000.00445
5999999.99632
6000000.00066
6000000.00067
5999999.99788
6000000.00271
6000000.00302
6000000.00294
6000000.00654
5999999.99407
5999999.99666
6000000.00356
6000000.00346
5999999.99677
5999999.99539
6000000.00147
5999999.99826
6000000.00003
6000000.00026
5999999.99902
6000000.0026
5999999.99941
6000000.00181
5999999.99824
5999999.998
6000000.00154
6000000.0035
6000000.0006
6000000.00332
6000000.00265
6000000.00116
5999999.99935
6000000.0002
5999999.99918
6000000.00188
6000000.00621
5999999.99729
5999999.99867
5999999.99316
6000000.00305
6000000.00278
5999999.99668
5999999.99771
5999999.9973
5999999.9983
5999999.99792
5999999.99971
5999999.99947
6000000.00015
5999999.99994
5999999.99951
6000000.00075
5999999.99723
5999999.99785
5999999.99801
6000000.00256
5999999.99992
5999999.99998
6000000.00061
5999999.99939
6000000.00053
6000000.00007
6000000.00093
6000000.00338
5999999.99762
5999999.99752
5999999.99629
6000000.00284
6000000.003
5999999.99603
5999999.99878
5999999.99762
6000000.0006
5999999.99735
5999999.99689
6000000.00275
6000000.00139
6000000.00048
6000000.00083
5999999.99998
6000000.00015
6000000.00004
6000000.00004
6000000.00001
5999999.99998
5999999.99993
5999999.99993
6000000.00015
6000000.00001
5999999.9999
6000000.0005
6000000.00203
6000000.00041
6000000.0002
6000000.00085
5999999.99941
6000000.00103
6000000.00046
5999999.99983
5999999.99994
6000000.0001
6000000.0006
5999999.99901
5999999.9985
6000000.002
5999999.99904
5999999.99997
5999999.99988
5999999.99993
5999999.99989
6000000.00001
5999999.99988
6000000.00006
6000000.00003
5999999.99896
6000000.00146
5999999.99982
5999999.99957
6000000
5999999.99788
6000000.00029
6000000.00012
6000000.00004
6000000.00001
5999999.99987
6000000.00114
6000000.00021
5999999.99995
6000000.00028
5999999.99982
6000000.0002
5999999.99867
6000000.00229
6000000.00205
5999999.99776
5999999.99792
6000000.00244
5999999.99855
6000000.00141
5999999.99976
6000000.00001
6000000.00001
5999999.99982
6000000.00002
5999999.99988
6000000.00021
5999999.99907
6000000.00082
6000000.00017
5999999.99999
5999999.99988
6000000.00048
5999999.99874
6000000.00296
6000000.00324
5999999.99818
6000000.00162
6000000.00307
6000000.0037
5999999.99786
5999999.99838
6000000.0011
5999999.99966
6000000.00002
6000000.00007
5999999.99994
5999999.99993
5999999.99998
6000000.00001
5999999.99991
5999999.99994
5999999.99991
5999999.99998
5999999.99975
6000000.0006
5999999.9989
5999999.99906
6000000.00153
5999999.99687
6000000.00342
6000000.00221
6000000.00149
5999999.99874
6000000.00258
6000000.00331
5999999.99828
5999999.99758
6000000.00343
5999999.99978
6000000.00454
6000000.00479
6000000.00123
6000000.00384
6000000.00004
6000000.00005
6000000.00127
6000000.00057
6000000.00063
5999999.99988
6000000.00272
5999999.99803
6000000.00084
6000000.00253
6000000.00372
6000000.00072
5999999.99807
6000000.00039
6000000.00003
6000000.00001
5999999.99955
6000000.00325
6000000.00118
5999999.99903
6000000.00114
6000000.00023
5999999.99989
6000000.00066
5999999.99931
6000000.00118
5999999.99342
6000000.00325
6000000.00308
5999999.9995
6000000.00013
6000000.00037
6000000.0002
6000000.00008
6000000
6000000.00001
6000000
6000000
5999999.99989
6000000.00001
5999999.99988
6000000
6000000.00001
5999999.99989
6000000.00015
5999999.99998
5999999.99988
6000000.00001
5999999.99993
5999999.99962
6000000.00005
6000000.00003
6000000.0003
5999999.99909
5999999.99848
5999999.99982
6000000.00006
5999999.99981
6000000.00004
5999999.9998
6000000.00093
6000000.00054
6000000.00013
6000000.00011
5999999.99992
5999999.99946
6000000.00093
5999999.99716
6000000.004
5999999.99699
5999999.9972
6000000.004
6000000.00208
6000000.00341
6000000.00027
5999999.99977
5999999.99711
5999999.99672
5999999.99766
6000000.00012
5999999.9969
6000000.00182
5999999.99985
5999999.99935
6000000.00026
5999999.99866
6000000.00093
5999999.99829
6000000.00247
5999999.99686
5999999.99629
6000000.00397
5999999.99731
5999999.99709
5999999.99877
6000000.00058
6000000.00064
6000000.0003
6000000.00001
6000000.00029
5999999.99986
6000000.00121
5999999.99796
6000000.00055
6000000.00011
6000000.00015
5999999.99771
5999999.99956
5999999.99963
5999999.99902
5999999.99929
5999999.99969
5999999.99999
6000000.00019
6000000.00051
5999999.99964
5999999.99951
6000000.00116
5999999.9998
6000000.00003
5999999.99998
6000000.00001
6000000.00001
6000000.00011
6000000.00001
6000000.00001
6000000.00006
6000000.00027
5999999.99963
5999999.99996
5999999.99998
6000000.00001
6000000.00001
6000000.00017
5999999.99926
6000000.00084
6000000.00138
5999999.99727
6000000.00412
5999999.99618
5999999.99502
6000000.00263
6000000.00284
5999999.99599
5999999.999
5999999.99945
5999999.99962
6000000.00044
5999999.9994
6000000.00124
5999999.99882
5999999.99928
5999999.99997
5999999.99959
6000000.00079
5999999.99906
6000000.00108
6000000.00213
5999999.99694
5999999.99731
5999999.99767
5999999.9999
6000000.00388
6000000.00173
5999999.99584
5999999.9942
6000000.00476
6000000.00298
5999999.99631
5999999.9979
6000000.00216
6000000.00235
5999999.99708
5999999.99939
6000000.00138
5999999.99987
6000000.00004
6000000.00001
6000000.00001
6000000.00009
6000000.00048
5999999.99978
5999999.99963
5999999.99996
6000000.00001
6000000.0002
6000000.00003
6000000.00001
5999999.9998
5999999.99916
6000000.00025
6000000.00001
6000000.00002
6000000.00001
6000000.00001
5999999.99982
6000000.00001
6000000.00003
5999999.99995
5999999.99955
5999999.99996
6000000.0011
5999999.99877
6000000.00005
6000000.00006
5999999.99733
6000000.00239
6000000.00053
6000000.00121
6000000.00072
6000000.00051
6000000.00027
6000000.0004
5999999.99903
6000000.00182
5999999.99919
6000000.00115
6000000.00239
6000000.00306
5999999.99859
5999999.99874
6000000.00371
6000000.00155
6000000.00161
6000000.001
5999999.99756
5999999.99946
6000000.00005
6000000.00029
5999999.99914
5999999.99875
6000000.00034
5999999.99803
5999999.99975
5999999.99793
5999999.99969
6000000.0009
5999999.99978
5999999.99943
5999999.99961
6000000.00001
5999999.99988
6000000.00006
6000000.00005
6000000.00001
5999999.99994
6000000.00006
6000000.00068
5999999.99866
5999999.99971
6000000.00005
6000000.00001
6000000.00007
6000000.00002
6000000.00007
6000000.00024
5999999.9996
6000000.00073
6000000.00122
5999999.99824
6000000.00262
5999999.99688
5999999.99978
6000000.00258
6000000.00426
6000000.0026
6000000.00166
6000000.00074
5999999.9968
5999999.9986
5999999.99906
5999999.99967
6000000.00064
6000000.00451
5999999.99563
5999999.9978
5999999.9959
6000000.00363
6000000.00162
6000000.0018
5999999.9998
6000000.00046
6000000.00057
6000000.00045
6000000.00059
5999999.99976
6000000.00002
6000000.00001
6000000
6000000.00007
5999999.99966
6000000.00085
5999999.99902
6000000.00096
5999999.99858
5999999.99715
5999999.99988
6000000.00076
5999999.99707
5999999.99693
6000000.00266
5999999.9979
5999999.99567
6000000.00258
6000000.00383
5999999.99722
6000000.00192
5999999.99951
5999999.99955
6000000.00179
5999999.99999
6000000.00005
6000000.00001
6000000.00001
6000000.00002
6000000.00001
6000000.00002
6000000.00001
6000000.00007
6000000.00017
6000000.00022
6000000.00003
6000000.00001
6000000.00001
5999999.99988
6000000.00118
5999999.99851
6000000.00233
6000000.00292
5999999.99955
6000000.00108
6000000.00063
6000000.00173
5999999.99968
6000000.00035
5999999.99728
6000000.00028
5999999.99932
6000000.00147
6000000.00048
5999999.99992
5999999.99961
5999999.99994
5999999.99992
6000000
5999999.99991
6000000.0003
6000000.00094
5999999.9996
5999999.99995
5999999.99996
6000000.00011
6000000.00002
6000000
5999999.99999
5999999.99975
6000000.00043
6000000
5999999.99799
6000000.00177
5999999.99882
6000000.00163
5999999.99983
5999999.99992
5999999.99998
5999999.99987
6000000.00099
5999999.99776
6000000.00047
6000000.00012
5999999.99994
6000000.00002
5999999.99975
5999999.99996
5999999.99994
6000000.00007
5999999.99988
5999999.99962
6000000.00013
5999999.99994
5999999.99993
6000000
6000000.00008
5999999.99994
6000000
6000000
5999999.99994
5999999.99997
6000000.00001
5999999.99993
6000000.00021
6000000.00001
6000000.00013
6000000.00003
6000000.00046
5999999.9992
6000000.00132
5999999.99818
6000000.00091
6000000.00054
6000000.00133
6000000.00187
5999999.99801
5999999.99977
5999999.99907
6000000.00003
5999999.99981
5999999.99935
6000000.00046
5999999.9991
5999999.99986
6000000.00003
5999999.99985
6000000.00153
6000000.00064
6000000.00182
5999999.99979
5999999.99966
6000000.00148
5999999.99702
6000000.00107
5999999.99819
6000000.00256
6000000.0035
5999999.99605
5999999.99843
5999999.99696
6000000.00302
6000000.00083
6000000.00401
5999999.99831
5999999.99659
6000000.0014
5999999.99605
5999999.99714
5999999.99801
5999999.99845
6000000.0004
5999999.9975
5999999.99862
5999999.99465
6000000.00041
5999999.99595
5999999.99733
5999999.99794
5999999.99716
5999999.99848
5999999.99658
6000000.00193
6000000.00016
6000000.00006
5999999.99841
6000000.00037
5999999.99987
5999999.99995
6000000.00015
5999999.99987
6000000.00025
5999999.99813
6000000.00198
5999999.9955
5999999.99408
6000000.00252
5999999.99584
5999999.9964
6000000.00329
5999999.99701
5999999.99634
6000000.00042
6000000.00001
6000000.00002
6000000.00017
6000000.00003
6000000.00001
6000000
6000000.0003
5999999.99966
6000000.00031
6000000.00004
6000000.00001
6000000.00001
5999999.99993
5999999.99994
6000000.00008
6000000.00026
5999999.99966
5999999.99919
6000000.00058
5999999.99962
5999999.99994
5999999.99988
5999999.9998
5999999.99964
6000000.00036
5999999.99981
5999999.99942
5999999.99996
5999999.99966
6000000.00014
6000000.00042
5999999.99961
6000000.00015
6000000.00049
6000000.00151
5999999.998
5999999.99895
6000000.00105
6000000.00031
6000000.00007
6000000.00042
5999999.99912
6000000.00105
6000000.00057
6000000.00041
5999999.99979
5999999.99993
5999999.99905
6000000.00104
6000000.00005
6000000.00066
5999999.99971
5999999.99974
6000000.00217
6000000.0031
5999999.99444
5999999.99582
6000000.0034
6000000.00092
6000000.00007
6000000.0003
6000000.00009
6000000.00148
5999999.99975
6000000.00017
5999999.99997
5999999.99992
6000000
6000000.00003
5999999.99999
5999999.99998
5999999.99999
6000000
6000000.00003
6000000.00011
6000000
6000000
6000000.00001
6000000
6000000.00011
6000000
6000000.00001
5999999.99994
5999999.99996
6000000.00011
6000000
6000000
6000000.00011
6000000
6000000
5999999.99993
6000000.00001
5999999.99994
6000000.00001
6000000.00009
5999999.99965
5999999.9997
5999999.99994
5999999.99994
6000000.00089
5999999.99999
6000000
5999999.99994
6000000.00004
6000000
6000000.00008
5999999.99994
6000000
6000000
5999999.99994
5999999.99998
6000000.00004
5999999.99973
6000000.00055
6000000.00038
5999999.99971
6000000.00069
5999999.99922
6000000.00116
6000000.00195
5999999.9983
5999999.99984
6000000.0034
5999999.99999
6000000.00002
6000000.00003
5999999.99988
6000000.00004
6000000.00006
6000000.00018
6000000.00004
6000000.00003
6000000.00002
5999999.99988
6000000.00015
6000000.00015
6000000.0002
6000000.0001
5999999.99989
6000000.00001
5999999.99993
6000000.00001
6000000.00002
6000000.00001
5999999.99971
5999999.99902
6000000.00194
5999999.99927
6000000.00125
5999999.99865
5999999.99914
5999999.99989
5999999.99923
5999999.99926
6000000.00098
5999999.99819
5999999.9966
6000000.00115
5999999.99663
5999999.99467
6000000.00241
5999999.99764
6000000.00004
5999999.99791
6000000.00121
6000000.0013
5999999.99916
6000000.00094
5999999.99934
5999999.99946
6000000.00058
6000000.0004
6000000.00013
5999999.99989
6000000.00002
6000000.00005
5999999.99993
6000000.00004
6000000.00015
5999999.99997
6000000.00029
5999999.99978
5999999.99954
6000000.00021
5999999.99912
5999999.99991
5999999.9992
5999999.9995
5999999.99979
6000000
5999999.99964
6000000.00073
6000000
5999999.99991
5999999.99996
5999999.99999
5999999.99999
5999999.9999
5999999.99994
6000000.00012
5999999.99998
5999999.99999
6000000.00006
5999999.99998
5999999.99998
6000000.00002
5999999.99998
6000000.00006
5999999.99994
6000000.00002
5999999.99954
5999999.9995
6000000.00011
5999999.99998
5999999.99998
5999999.99998
5999999.99998
5999999.99994
5999999.99998
5999999.99998
5999999.99994
5999999.99986
6000000.00036
5999999.99986
5999999.99964
5999999.99995
5999999.99993
6000000.0007
5999999.99972
5999999.99998
5999999.99998
6000000.00002
5999999.99994
5999999.99998
5999999.9999
5999999.99994
5999999.99998
5999999.99998
5999999.99989
6000000.00001
5999999.99954
6000000.0009
5999999.99991
6000000.00003
6000000.00002
5999999.99994
5999999.99998
6000000.0001
5999999.99989
5999999.99787
6000000.00165
6000000.00008
6000000.0001
6000000.00005
6000000.0001
6000000.00013
5999999.99943
6000000.00131
6000000.0041
6000000.00149
5999999.99921
6000000.0031
6000000.00152
5999999.99797
6000000.00258
6000000.00013
6000000.00141
5999999.99823
5999999.99872
5999999.99984
5999999.99953
6000000.0001
5999999.99896
6000000.00149
6000000.00058
5999999.99991
6000000.00006
5999999.99932
6000000.00085
5999999.99904
6000000.00201
5999999.99766
6000000.00242
6000000.0032
5999999.99792
6000000.00265
5999999.99604
5999999.99599
6000000.00286
6000000.0008
6000000.00449
5999999.9976
5999999.99892
6000000.00201
5999999.99838
5999999.9994
5999999.99969
5999999.99983
6000000.00013
5999999.99987
6000000.0001
5999999.99985
5999999.99997
5999999.99992
5999999.99955
6000000.00025
6000000.00004
5999999.99998
6000000.00025
5999999.99981
6000000.00005
5999999.9989
5999999.99966
5999999.99995
5999999.99979
5999999.99973
5999999.99938
6000000.00125
5999999.99991
5999999.99982
6000000.00289
6000000.00176
5999999.99677
6000000.00166
5999999.99971
6000000.00285
6000000.00258
5999999.99608
5999999.9984
5999999.99906
6000000.00394
6000000.00275
5999999.99712
5999999.99848
5999999.99611
6000000.00118
5999999.99566
5999999.99658
5999999.99894
5999999.99562
6000000.00201
5999999.99762
5999999.99835
5999999.99894
6000000.00108
5999999.998
5999999.99828
6000000.00191
6000000.00128
5999999.99791
5999999.99705
5999999.99738
5999999.99746
5999999.99828
5999999.99774
6000000.00008
5999999.9967
5999999.99423
6000000.00194
5999999.99868
5999999.99773
5999999.99796
5999999.99543
5999999.99612
6000000.0037
5999999.99703
5999999.99545
5999999.99929
5999999.99592
6000000.00104
6000000.00218
5999999.99495
5999999.99675
5999999.99706
6000000.00205
6000000.00182
5999999.99735
6000000.00451
6000000.00273
5999999.99922
6000000.00399
5999999.99555
5999999.99585
6000000.002
5999999.99999
5999999.99987
5999999.9967
5999999.99751
6000000.00179
5999999.99743
5999999.99912
6000000.00189
5999999.99972
6000000.0021
6000000.0044
6000000.00172
6000000.00012
5999999.99621
5999999.99793
6000000.00423
6000000.00157
5999999.99525
5999999.99854
6000000.00029
6000000.00406
6000000.00085
5999999.9998
6000000.00062
6000000.00095
5999999.99991
5999999.99848
6000000.00199
6000000.00154
5999999.99882
6000000.00209
5999999.99755
5999999.99982
5999999.99837
6000000.00068
6000000.00111
5999999.99618
5999999.99978
6000000.00059
5999999.99645
5999999.99823
6000000.00139
5999999.99932
5999999.9987
6000000.00134
5999999.99956
5999999.99803
5999999.99752
5999999.99913
5999999.99753
5999999.99993
5999999.9983
6000000.00489
5999999.99892
5999999.99989
6000000.00525
5999999.99754
6000000.00121
6000000.00083
6000000.00759
5999999.99879
6000000.00115
6000000.0068
6000000.00503
5999999.99892
5999999.99652
6000000.01001
6000000.00764
6000000.00414
6000000.00036
5999999.99753
6000000.00821
6000000.00694
6000000.00195
6000000.00423
6000000.00235
5999999.99526
6000000.00659
6000000.00632
6000000.00076
5999999.9981
6000000.00837
6000000.00198
5999999.99395
6000000.0025
6000000.00143
6000000.00885
6000000.00517
5999999.99752
6000000.0007
6000000.00758
5999999.99756
5999999.99835
6000000.00705
6000000.00831
6000000.00129
6000000.00523
6000000.00634
6000000.00369
5999999.99839
6000000.00161
6000000.00597
6000000.00656
6000000.00758
6000000.00289
6000000.00225
6000000.00463
6000000.00717
6000000.00071
6000000.00151
6000000.00467
5999999.99696
6000000.00505
6000000.00344
6000000.00834
6000000.00295
6000000.00597
6000000.00503
5999999.9949
6000000.00585
6000000.0023
5999999.99861
6000000.00668
5999999.99918
5999999.9993
5999999.99887
6000000.00019
5999999.99899
5999999.99959
5999999.99839
5999999.99931
5999999.9997
5999999.99921
5999999.99868
5999999.99829
5999999.99978
5999999.99901
6000000.00086
5999999.99795
5999999.99844
5999999.99775
6000000.00022
5999999.99866
5999999.9979
5999999.99896
5999999.99962
5999999.99854
5999999.99837
5999999.99849
5999999.99898
5999999.99868
5999999.99973
5999999.99651
5999999.99817
6000000.00022
5999999.9987
5999999.99721
5999999.99964
5999999.9979
6000000.00044
5999999.99902
5999999.99862
5999999.99787
5999999.99879
6000000.00023
5999999.99833
5999999.99937
5999999.99951
5999999.99806
5999999.99813
5999999.99956
5999999.9978
5999999.99664
5999999.99969
5999999.99941
6000000.00092
6000000.00036
5999999.99877
5999999.99962
5999999.99766
5999999.99768
5999999.99875
5999999.99932
5999999.99884
6000000.00062
6000000.00251
5999999.99829
5999999.99928
5999999.9994
5999999.99969
5999999.99957
6000000.00065
5999999.99963
5999999.99947
6000000.00033
5999999.9996
5999999.99958
5999999.99962
5999999.9997
6000000.00045
5999999.99986
5999999.99967
5999999.99958
6000000.00032
6000000.0004
5999999.9998
6000000.00031
5999999.9998
6000000.00048
5999999.9996
5999999.99954
6000000.00041
5999999.99989
6000000.00047
5999999.99975
5999999.99987
5999999.99956
6000000.0003
6000000.00054
6000000.00027
6000000.00058
5999999.99962
6000000.00046
6000000.00046
5999999.99956
6000000.00014
5999999.99964
6000000.00039
5999999.99991
5999999.99947
6000000.00054
6000000.00017
6000000.00039
6000000.00045
5999999.99947
5999999.99958
5999999.99979
6000000.00018
6000000.00016
6000000.00044
6000000.00043
5999999.99974
5999999.99982
6000000.00021
6000000.00004
6000000.00035
6000000.00017
6000000.00017
6000000.00058
5999999.99961
6000000.00041
6000000.00055
6000000.00079
6000000.00083
6000000.00088
6000000.00055
6000000.00084
6000000.0007
6000000.00111
6000000.00069
6000000.00072
6000000.00069
6000000.00075
6000000.00064
6000000.00071
6000000.00077
6000000.0008
6000000.00053
6000000.00082
6000000.00089
6000000.00065
6000000.00087
6000000.00093
6000000.00054
6000000.00069
6000000.00068
6000000.00069
6000000.0006
6000000.0005
6000000.00076
6000000.00078
6000000.00072
6000000.00077
6000000.00079
6000000.00097
6000000.00059
6000000.0008
6000000.00056
6000000.00058
6000000.00048
6000000.00065
6000000.00081
6000000.00085
6000000.0009
6000000.00083
6000000.0008
6000000.0008
6000000.00063
6000000.00083
6000000.00084
6000000.00098
6000000.00065
6000000.00058
6000000.00062
6000000.00077
6000000.00081
6000000.0007
6000000.00085
6000000.00089
6000000.00082
6000000.00077
6000000.00064
6000000.00098
6000000.00109
6000000.00076
5999999.99918
5999999.99902
5999999.99898
5999999.99912
5999999.99903
5999999.99938
5999999.99905
5999999.99904
5999999.99894
5999999.99889
5999999.99914
5999999.99921
5999999.99942
5999999.99902
5999999.99888
5999999.99903
5999999.999
5999999.99922
5999999.99907
5999999.99911
5999999.99906
5999999.99903
5999999.99931
5999999.99932
5999999.99896
5999999.99909
5999999.99943
5999999.99909
5999999.99912
5999999.99922
5999999.99903
5999999.99945
5999999.99928
5999999.99916
5999999.99903
5999999.99908
5999999.99927
5999999.99885
5999999.99885
5999999.99899
5999999.99928
5999999.99916
5999999.99902
5999999.9991
5999999.99914
5999999.99899
5999999.99941
5999999.99925
5999999.99898
5999999.99911
5999999.99907
5999999.99897
5999999.99892
5999999.9989
5999999.99901
5999999.99913
5999999.99925
5999999.99915
5999999.9992
5999999.99907
5999999.99908
5999999.99914
5999999.99906
5999999.99895
5999999.99954
5999999.99941
5999999.99943
5999999.99981
5999999.99958
5999999.9997
5999999.99969
5999999.9996
5999999.99974
5999999.99963
5999999.99949
5999999.99939