/*--------------------------------*- C++ -*----------------------------------*\
  =========                 |
  \\      /  F ield         | OpenFOAM: The Open Source CFD Toolbox
   \\    /   O peration     | Website:  https://openfoam.org
    \\  /    A nd           | Version:  6
     \\/     M anipulation  |
\*---------------------------------------------------------------------------*/
FoamFile
{
    version     2.0;
    format      ascii;
    class       volVectorField;
    location    "4e-06";
    object      U;
}
// * * * * * * * * * * * * * * * * * * * * * * * * * * * * * * * * * * * * * //

dimensions      [0 1 -1 0 0 0 0];

internalField   nonuniform List<vector> 
8192
(
(-88.322 0 -2.02052519147e-12)
(-88.322 0 -9.46318126776e-14)
(-88.322 0 -1.82521370404e-12)
(-88.322 0 -3.26985970727e-12)
(-88.322 0 8.14448782142e-13)
(-88.322 0 -3.47194650523e-13)
(-88.322 0 -1.57791764567e-13)
(-88.322 0 2.89680398676e-13)
(-88.322 0 -1.6008850121e-12)
(-88.322 0 -3.48879026311e-12)
(-88.322 0 -2.46700549931e-12)
(-88.322 0 9.85409800721e-13)
(-88.322 0 -3.02134916473e-12)
(-88.322 0 -2.95714682842e-12)
(-88.322 0 -4.21376288586e-12)
(-88.322 0 1.27197687811e-12)
(-88.322 0 -7.88964186248e-13)
(-88.322 0 1.20738592945e-12)
(-88.322 0 -3.16088734601e-12)
(-88.322 0 -2.85451392964e-12)
(-88.322 0 1.34745217188e-12)
(-88.322 0 1.76922285025e-12)
(-88.322 0 2.70579489914e-13)
(-88.322 0 -1.2410153886e-12)
(-88.322 0 1.02024649874e-12)
(-88.322 0 7.36304765962e-13)
(-88.322 0 1.76346188383e-12)
(-88.322 0 1.89326302035e-12)
(-88.322 0 7.16324351228e-13)
(-88.322 0 -1.49491973887e-12)
(-88.322 0 3.093133488e-12)
(-88.322 0 -2.41864330361e-13)
(-88.322 0 -1.25943693146e-12)
(-88.322 0 2.30066727402e-12)
(-88.322 0 -4.16419919109e-12)
(-88.322 0 -3.38915890076e-13)
(-88.322 0 2.38512948721e-14)
(-88.322 0 -4.07405966194e-12)
(-88.322 0 2.2226330667e-12)
(-88.322 0 -3.37965718759e-14)
(-88.322 0 1.90778818332e-12)
(-88.322 0 -1.82770882117e-13)
(-88.322 0 -1.40766723253e-12)
(-88.322 0 -3.13071663089e-13)
(-88.322 0 -2.43534883594e-12)
(-88.322 0 -2.6730329018e-13)
(-88.322 0 -3.61847970887e-14)
(-88.322 0 -6.11209132238e-14)
(-88.322 0 8.62021144405e-13)
(-88.322 0 -1.53220243643e-12)
(-88.322 0 -2.49263867121e-13)
(-88.322 0 -1.83771911782e-12)
(-88.322 0 -2.77598976966e-13)
(-88.322 0 3.11329616475e-12)
(-88.322 0 -3.77634289154e-14)
(-88.322 0 -3.78499069258e-12)
(-88.322 0 2.06075381531e-12)
(-88.322 0 -2.48891109775e-12)
(-88.322 0 -3.64095900453e-13)
(-88.322 0 2.01178875294e-13)
(-88.322 0 1.9518783719e-12)
(-88.322 0 4.59453100901e-12)
(-88.322 0 2.99534742271e-12)
(-88.322 0 4.21492157169e-13)
(-88.322 0 -9.08321804486e-15)
(-88.322 0 1.76127963258e-14)
(-88.322 0 1.125572961e-12)
(-88.322 0 -1.4216051486e-13)
(-88.322 0 -5.67455897863e-14)
(-88.322 0 -1.83407811177e-13)
(-88.322 0 -1.84441256569e-14)
(-88.322 0 2.6262855645e-15)
(-88.322 0 -2.3972865613e-14)
(-88.322 0 -1.42137969698e-12)
(-88.322 0 -4.88638161478e-14)
(-88.322 0 -2.75986894367e-12)
(-88.322 0 -2.97518041759e-14)
(-88.322 0 -2.9768835371e-15)
(-88.322 0 2.51408668567e-14)
(-88.322 0 9.38711957395e-13)
(-88.322 0 1.32120672381e-14)
(-88.322 0 2.13826843003e-13)
(-88.322 0 -2.02007833431e-12)
(-88.322 0 -2.88578075743e-14)
(-88.322 0 7.70270144269e-14)
(-88.322 0 1.51779940877e-14)
(-88.322 0 1.09176547411e-14)
(-88.322 0 7.63016360665e-16)
(-88.322 0 4.73322318214e-14)
(-88.322 0 -4.00950286976e-12)
(-88.322 0 2.1330741978e-12)
(-88.322 0 -4.66937031467e-13)
(-88.322 0 7.23361904521e-14)
(-88.322 0 -1.48226913651e-14)
(-88.322 0 -1.75647231899e-13)
(-88.322 0 -1.52761257639e-13)
(-88.322 0 1.13804139545e-14)
(-88.322 0 -1.53155722701e-12)
(-88.322 0 5.69973691892e-13)
(-88.322 0 -2.16292197887e-12)
(-88.322 0 -1.43951650837e-12)
(-88.322 0 2.81110037822e-13)
(-88.322 0 -1.2396602324e-12)
(-88.322 0 -4.20435282122e-15)
(-88.322 0 1.20567942252e-12)
(-88.322 0 -3.55893827432e-13)
(-88.322 0 -2.0604829158e-14)
(-88.322 0 2.28367531651e-13)
(-88.322 0 -1.45961999936e-12)
(-88.322 0 -2.98714309141e-12)
(-88.322 0 -1.55205309416e-12)
(-88.322 0 -2.03092673513e-13)
(-88.322 0 -4.69968904122e-12)
(-88.322 0 -1.83704680904e-13)
(-88.322 0 1.21710876587e-12)
(-88.322 0 -3.53755989017e-13)
(-88.322 0 -2.69586881752e-14)
(-88.322 0 -1.77242236256e-13)
(-88.322 0 -5.24780051246e-13)
(-88.322 0 8.65978507259e-12)
(-88.322 0 -1.63669070043e-12)
(-88.322 0 -1.423562701e-12)
(-88.322 0 -3.36340349946e-12)
(-88.322 0 3.52168418165e-14)
(-88.322 0 -1.55366098953e-12)
(-88.322 0 -8.78359885012e-12)
(-88.322 0 -3.94384403694e-12)
(-88.322 0 -1.00173825495e-12)
(-88.322 0 7.29793711397e-13)
(-88.322 0 6.6472820445e-13)
(-88.322 0 -8.2425094065e-13)
(-88.322 0 3.44803828288e-12)
(-88.322 0 5.06114802338e-13)
(-88.322 0 1.47959881448e-12)
(-88.322 0 2.66028208825e-13)
(-88.322 0 3.35795793948e-13)
(-88.322 0 -9.98243511962e-14)
(-88.322 0 3.30609992632e-12)
(-88.322 0 2.27323302971e-12)
(-88.322 0 -1.19569528428e-13)
(-88.322 0 2.22101039842e-12)
(-88.322 0 2.12396787182e-13)
(-88.322 0 3.60960448021e-12)
(-88.322 0 -1.13691639562e-12)
(-88.322 0 4.67471961546e-13)
(-88.322 0 5.53178769312e-13)
(-88.322 0 3.13186929465e-12)
(-88.322 0 1.70234050013e-12)
(-88.322 0 -1.32658180663e-12)
(-88.322 0 4.42391785965e-13)
(-88.322 0 1.53081886354e-12)
(-88.322 0 1.22493511755e-12)
(-88.322 0 9.3129012012e-13)
(-88.322 0 -6.90821030429e-13)
(-88.322 0 4.67660622022e-14)
(-88.322 0 5.05286295857e-13)
(-88.322 0 -4.66906168307e-13)
(-88.322 0 -1.44059709536e-12)
(-88.322 0 -4.79916495863e-14)
(-88.322 0 2.01169371699e-13)
(-88.322 0 9.12258371183e-13)
(-88.322 0 2.52967625129e-12)
(-88.322 0 7.21304028036e-12)
(-88.322 0 -4.93850083567e-14)
(-88.322 0 -1.24161863165e-12)
(-88.322 0 1.7061920908e-12)
(-88.322 0 3.16862675392e-12)
(-88.322 0 -3.99326555416e-12)
(-88.322 0 -3.02148842533e-12)
(-88.322 0 5.10718494342e-14)
(-88.322 0 -2.62318588699e-12)
(-88.322 0 -3.11956260951e-13)
(-88.322 0 -2.67631277124e-12)
(-88.322 0 -2.59542334522e-13)
(-88.322 0 -1.29600224873e-12)
(-88.322 0 -3.99114747569e-12)
(-88.322 0 7.08993786104e-13)
(-88.322 0 2.62340813938e-13)
(-88.322 0 -2.44318327979e-13)
(-88.322 0 1.85828866135e-12)
(-88.322 0 -3.78796879935e-12)
(-88.322 0 -2.66520231584e-13)
(-88.322 0 -1.23978782523e-12)
(-88.322 0 -4.01701343863e-12)
(-88.322 0 -3.08623820635e-12)
(-88.322 0 -2.63359815748e-12)
(-88.322 0 -4.44771542627e-13)
(-88.322 0 -2.19695265911e-13)
(-88.322 0 5.97176744784e-14)
(-88.322 0 1.89680023962e-12)
(-88.322 0 8.02224806506e-14)
(-88.322 0 1.10660892327e-12)
(-88.322 0 1.9623953274e-12)
(-88.322 0 -3.81623634898e-13)
(-88.322 0 4.8020433247e-13)
(-88.322 0 2.13454772551e-12)
(-88.322 0 -2.00706019687e-12)
(-88.322 0 -1.37064423718e-14)
(-88.322 0 1.55649127306e-14)
(-88.322 0 1.31314306453e-12)
(-88.322 0 4.10523314748e-14)
(-88.322 0 2.70862904056e-12)
(-88.322 0 -1.02819677353e-13)
(-88.322 0 1.5455927196e-12)
(-88.322 0 1.5819504633e-12)
(-88.322 0 2.74644262211e-12)
(-88.322 0 1.86865143787e-14)
(-88.322 0 -2.0294233793e-12)
(-88.322 0 2.47204692125e-13)
(-88.322 0 -1.64072549406e-12)
(-88.322 0 2.02736147555e-12)
(-88.322 0 -1.09500516498e-13)
(-88.322 0 -1.45336973894e-13)
(-88.322 0 -3.07439757375e-12)
(-88.322 0 -2.5191000673e-13)
(-88.322 0 8.20865026145e-14)
(-88.322 0 1.33126585576e-12)
(-88.322 0 5.28725332302e-12)
(-88.322 0 -7.7979763947e-13)
(-88.322 0 -3.25956279725e-13)
(-88.322 0 5.77198494236e-14)
(-88.322 0 3.06012467947e-13)
(-88.322 0 1.51918872145e-12)
(-88.322 0 -8.18306959456e-13)
(-88.322 0 -1.92819475432e-14)
(-88.322 0 -7.2859208104e-13)
(-88.322 0 2.06344154491e-12)
(-88.322 0 2.62289042868e-12)
(-88.322 0 4.69604624737e-14)
(-88.322 0 3.63678363297e-12)
(-88.322 0 -1.08705027953e-12)
(-88.322 0 1.20221606783e-13)
(-88.322 0 -9.51335742688e-13)
(-88.322 0 -6.99557280769e-13)
(-88.322 0 1.39166129653e-13)
(-88.322 0 1.49977268854e-13)
(-88.322 0 3.8753415591e-12)
(-88.322 0 3.10256227755e-12)
(-88.322 0 1.5394701461e-12)
(-88.322 0 3.22318190618e-13)
(-88.322 0 4.91558954985e-12)
(-88.322 0 5.50987579031e-13)
(-88.322 0 -9.25704076308e-13)
(-88.322 0 3.71560645049e-13)
(-88.322 0 1.57000331516e-13)
(-88.322 0 1.54485172147e-12)
(-88.322 0 2.40423999366e-12)
(-88.322 0 -7.62505556544e-12)
(-88.322 0 1.47273703065e-12)
(-88.322 0 4.19409787756e-12)
(-88.322 0 1.20657426597e-12)
(-88.322 0 1.99171386682e-12)
(-88.322 0 -2.51198516792e-12)
(-88.322 0 8.74512246338e-12)
(-88.322 0 5.12212440668e-13)
(-88.322 0 2.40699062144e-12)
(-88.322 0 -2.53800374098e-12)
(-88.322 0 -9.37433018145e-13)
(-88.322 0 1.15024090639e-12)
(-88.322 0 -1.61207883567e-13)
(-88.322 0 -1.29552255242e-12)
(-88.322 0 -1.23162828314e-14)
(-88.322 0 -5.66900925549e-13)
(-88.322 0 2.10709917876e-12)
(-88.322 0 1.19671565047e-12)
(-88.322 0 2.00292500387e-13)
(-88.322 0 6.35646544869e-13)
(-88.322 0 -4.22631327705e-12)
(-88.322 0 -5.32785296345e-12)
(-88.322 0 -4.30130172329e-13)
(-88.322 0 1.88118489197e-14)
(-88.322 0 -2.06502770433e-14)
(-88.322 0 1.09081191537e-12)
(-88.322 0 4.060484388e-13)
(-88.322 0 -1.71475530043e-13)
(-88.322 0 9.2867409091e-13)
(-88.322 0 -4.81259231523e-14)
(-88.322 0 -2.31495719949e-13)
(-88.322 0 5.9603603109e-13)
(-88.322 0 -2.44215613876e-12)
(-88.322 0 -3.57603345405e-14)
(-88.322 0 -3.75271563686e-14)
(-88.322 0 1.84025450761e-13)
(-88.322 0 6.41382858397e-13)
(-88.322 0 3.87402385271e-13)
(-88.322 0 1.67173600706e-13)
(-88.322 0 1.78712188357e-13)
(-88.322 0 6.89062677151e-13)
(-88.322 0 -2.17781411235e-12)
(-88.322 0 -2.84651830105e-12)
(-88.322 0 -9.81002033328e-12)
(-88.322 0 -1.06143009274e-12)
(-88.322 0 1.63046725709e-12)
(-88.322 0 -5.70105123789e-12)
(-88.322 0 -2.40196505883e-12)
(-88.322 0 1.41483416645e-12)
(-88.322 0 5.56388443881e-14)
(-88.322 0 4.83688764441e-13)
(-88.322 0 1.36535638042e-12)
(-88.322 0 1.09178429311e-14)
(-88.322 0 1.68436637901e-14)
(-88.322 0 1.17522773973e-14)
(-88.322 0 4.16262168841e-14)
(-88.322 0 1.42093387487e-12)
(-88.322 0 -6.28671282468e-14)
(-88.322 0 -1.08460220989e-12)
(-88.322 0 -6.27279617407e-14)
(-88.322 0 3.5832881786e-13)
(-88.322 0 1.4754783944e-12)
(-88.322 0 -9.37596084781e-13)
(-88.322 0 -1.04599644253e-12)
(-88.322 0 -3.88030845781e-14)
(-88.322 0 -1.30905849465e-12)
(-88.322 0 2.30957308355e-12)
(-88.322 0 -3.68242450716e-12)
(-88.322 0 2.90704481616e-12)
(-88.322 0 5.07962545866e-13)
(-88.322 0 3.20922291283e-12)
(-88.322 0 9.99010950787e-13)
(-88.322 0 -4.28437885707e-13)
(-88.322 0 -4.27935305734e-13)
(-88.322 0 -1.51963426128e-16)
(-88.322 0 2.93911192192e-13)
(-88.322 0 3.28931657742e-13)
(-88.322 0 1.3877601178e-14)
(-88.322 0 2.53601975985e-12)
(-88.322 0 2.97248901828e-12)
(-88.322 0 -2.2725649552e-12)
(-88.322 0 3.22179212302e-13)
(-88.322 0 1.19776565658e-12)
(-88.322 0 -7.72486269725e-13)
(-88.322 0 2.65241800447e-12)
(-88.322 0 1.42471160096e-12)
(-88.322 0 -9.45023567757e-13)
(-88.322 0 3.76978296447e-12)
(-88.322 0 5.3254899557e-12)
(-88.322 0 7.75266776996e-13)
(-88.322 0 2.85184539542e-13)
(-88.322 0 -6.18756586339e-13)
(-88.322 0 7.57669318155e-13)
(-88.322 0 4.28247133765e-12)
(-88.322 0 2.7139905737e-12)
(-88.322 0 -1.20476651282e-12)
(-88.322 0 -3.34412475114e-12)
(-88.322 0 -3.05268948071e-12)
(-88.322 0 2.97326351424e-12)
(-88.322 0 -1.60041604262e-12)
(-88.322 0 -8.77251549408e-13)
(-88.322 0 4.07866570632e-12)
(-88.322 0 7.02174533213e-13)
(-88.322 0 -2.17260106112e-12)
(-88.322 0 -1.01565880288e-12)
(-88.322 0 8.46822073037e-14)
(-88.322 0 7.16270905268e-14)
(-88.322 0 3.19382802976e-13)
(-88.322 0 -2.74875020791e-13)
(-88.322 0 9.92943140572e-13)
(-88.322 0 3.21537202112e-13)
(-88.322 0 1.36338951262e-14)
(-88.322 0 2.0900102093e-12)
(-88.322 0 5.19747191944e-13)
(-88.322 0 -9.85853740935e-13)
(-88.322 0 7.44920010131e-14)
(-88.322 0 7.83505547067e-14)
(-88.322 0 -1.29251809905e-13)
(-88.322 0 -6.29561421174e-15)
(-88.322 0 -3.06866285983e-13)
(-88.322 0 2.06305227389e-12)
(-88.322 0 -1.20004614301e-12)
(-88.322 0 -1.88331143898e-14)
(-88.322 0 9.9934254157e-14)
(-88.322 0 1.4934794267e-12)
(-88.322 0 3.23724788555e-12)
(-88.322 0 -2.22871602621e-12)
(-88.322 0 3.14027386012e-13)
(-88.322 0 2.73884162796e-12)
(-88.322 0 1.18253798033e-13)
(-88.322 0 7.58065081728e-13)
(-88.322 0 2.65760310949e-12)
(-88.322 0 -2.01479593506e-12)
(-88.322 0 1.71423006214e-12)
(-88.322 0 -3.77013742034e-12)
(-88.322 0 3.44707098627e-12)
(-88.322 0 -2.10476045413e-12)
(-88.322 0 1.98299216602e-12)
(-88.322 0 4.60240666647e-13)
(-88.322 0 -1.4560789222e-12)
(-88.322 0 1.58210393225e-13)
(-88.322 0 1.2251150272e-13)
(-88.322 0 -1.08832159708e-14)
(-88.322 0 -1.18413053822e-12)
(-88.322 0 -1.42715590679e-12)
(-88.322 0 -2.72906553376e-14)
(-88.322 0 -1.73090953015e-13)
(-88.322 0 -2.40674310887e-14)
(-88.322 0 -3.12844423663e-13)
(-88.322 0 -1.36539138376e-12)
(-88.322 0 1.15750974519e-12)
(-88.322 0 1.37970558574e-14)
(-88.322 0 -5.08103594273e-15)
(-88.322 0 -9.36592091124e-13)
(-88.322 0 -8.74901997241e-13)
(-88.322 0 2.76000114714e-13)
(-88.322 0 -1.37881356514e-13)
(-88.322 0 -1.70029666262e-15)
(-88.322 0 -9.24636756715e-13)
(-88.322 0 -2.18015858339e-13)
(-88.322 0 2.56877272408e-12)
(-88.322 0 -1.19560655269e-12)
(-88.322 0 -2.16313115206e-14)
(-88.322 0 -1.23199525365e-12)
(-88.322 0 -2.49372076372e-13)
(-88.322 0 -2.99228124302e-13)
(-88.322 0 4.13854560058e-13)
(-88.322 0 -2.53288987785e-12)
(-88.322 0 -8.13979906754e-13)
(-88.322 0 4.88620697446e-12)
(-88.322 0 9.1726855359e-13)
(-88.322 0 -2.78690573069e-14)
(-88.322 0 -5.9800289889e-14)
(-88.322 0 -8.33402620418e-13)
(-88.322 0 8.72196662466e-12)
(-88.322 0 -7.72700524042e-13)
(-88.322 0 3.11906108316e-15)
(-88.322 0 1.08884335386e-12)
(-88.322 0 7.96665673865e-14)
(-88.322 0 1.34649946e-15)
(-88.322 0 5.45702168747e-13)
(-88.322 0 2.44078997345e-12)
(-88.322 0 -1.18752689727e-13)
(-88.322 0 -1.70170808763e-15)
(-88.322 0 3.16864914853e-15)
(-88.322 0 1.86850182682e-13)
(-88.322 0 7.72049480732e-15)
(-88.322 0 4.154724295e-13)
(-88.322 0 4.8761064407e-14)
(-88.322 0 -1.7912112523e-14)
(-88.322 0 -1.22828565234e-12)
(-88.322 0 1.12549853186e-13)
(-88.322 0 1.35607880154e-12)
(-88.322 0 2.86636895878e-13)
(-88.322 0 1.52122540774e-13)
(-88.322 0 3.89431421638e-12)
(-88.322 0 -4.94766757063e-13)
(-88.322 0 -8.35281321202e-16)
(-88.322 0 7.3403510045e-16)
(-88.322 0 1.67227140762e-13)
(-88.322 0 -6.04932866412e-13)
(-88.322 0 3.13271926624e-12)
(-88.322 0 3.11860566335e-13)
(-88.322 0 -3.38670302125e-13)
(-88.322 0 7.44592559528e-13)
(-88.322 0 1.88394036997e-12)
(-88.322 0 -2.31743076887e-12)
(-88.322 0 -2.96706284188e-12)
(-88.322 0 2.2825894602e-12)
(-88.322 0 -3.17674131859e-13)
(-88.322 0 -2.38087375852e-12)
(-88.322 0 6.50078647887e-13)
(-88.322 0 -1.19397353395e-12)
(-88.322 0 2.09696213614e-12)
(-88.322 0 -1.68116206785e-12)
(-88.322 0 -3.48936904146e-12)
(-88.322 0 -3.47965655549e-12)
(-88.322 0 1.93889806065e-13)
(-88.322 0 9.40930717511e-13)
(-88.322 0 4.81216230108e-13)
(-88.322 0 -5.99061844028e-13)
(-88.322 0 -2.97370585483e-12)
(-88.322 0 3.75955069771e-13)
(-88.322 0 1.7577802395e-12)
(-88.322 0 2.98501174555e-12)
(-88.322 0 1.698091264e-12)
(-88.322 0 -3.01409905083e-12)
(-88.322 0 2.4777189679e-13)
(-88.322 0 1.11228561776e-12)
(-88.322 0 -4.07282118354e-12)
(-88.322 0 -7.09802344445e-13)
(-88.322 0 8.28852374374e-13)
(-88.322 0 2.07753462364e-12)
(-88.322 0 -5.31602879747e-14)
(-88.322 0 -3.63893502107e-13)
(-88.322 0 -3.76227380703e-13)
(-88.322 0 2.54369838239e-14)
(-88.322 0 2.44272851865e-12)
(-88.322 0 -2.71811475758e-13)
(-88.322 0 1.1922542301e-12)
(-88.322 0 -2.07214561476e-12)
(-88.322 0 -7.79965504951e-13)
(-88.322 0 2.04859824674e-12)
(-88.322 0 -5.02847447533e-14)
(-88.322 0 -3.46479152138e-13)
(-88.322 0 -2.31043367642e-12)
(-88.322 0 -1.38477260153e-13)
(-88.322 0 3.10563937226e-13)
(-88.322 0 -2.04681335867e-12)
(-88.322 0 1.01021681852e-12)
(-88.322 0 1.74564104346e-14)
(-88.322 0 -3.92842299547e-13)
(-88.322 0 -1.49848377522e-12)
(-88.322 0 -3.23332741735e-12)
(-88.322 0 8.95223600447e-13)
(-88.322 0 -8.24269477365e-13)
(-88.322 0 -3.85098600912e-12)
(-88.322 0 -4.19633875001e-13)
(-88.322 0 -1.11276220894e-12)
(-88.322 0 -4.00536570077e-12)
(-88.322 0 2.00982715446e-12)
(-88.322 0 -1.71171217401e-12)
(-88.322 0 3.72643763192e-12)
(-88.322 0 -3.45305458146e-12)
(-88.322 0 2.11723461031e-12)
(-88.322 0 7.15263386306e-14)
(-88.322 0 2.40114445633e-14)
(-88.322 0 1.41260947835e-12)
(-88.322 0 1.06060120987e-14)
(-88.322 0 -5.84705393391e-14)
(-88.322 0 1.19611748855e-12)
(-88.322 0 1.14923267845e-12)
(-88.322 0 -6.9233803003e-13)
(-88.322 0 -1.9261434833e-14)
(-88.322 0 -1.45696021598e-12)
(-88.322 0 -6.42803881098e-13)
(-88.322 0 3.33807274889e-12)
(-88.322 0 6.53474160082e-12)
(-88.322 0 -1.05966016577e-12)
(-88.322 0 -1.64046165168e-14)
(-88.322 0 -2.47157456435e-14)
(-88.322 0 -2.79073445627e-13)
(-88.322 0 1.11119430395e-12)
(-88.322 0 -5.65019778295e-14)
(-88.322 0 1.25802193084e-13)
(-88.322 0 -4.43375643292e-15)
(-88.322 0 9.41804483688e-13)
(-88.322 0 2.5452076662e-13)
(-88.322 0 9.84862261912e-14)
(-88.322 0 1.19798687392e-12)
(-88.322 0 1.211717781e-14)
(-88.322 0 1.2313806251e-12)
(-88.322 0 8.18723988499e-13)
(-88.322 0 -3.73105026295e-13)
(-88.322 0 1.86820072282e-12)
(-88.322 0 1.22758718515e-12)
(-88.322 0 1.32065062236e-13)
(-88.322 0 -2.1623795212e-12)
(-88.322 0 1.67846869255e-12)
(-88.322 0 1.09515825755e-12)
(-88.322 0 9.20272160108e-13)
(-88.322 0 -8.50023561341e-13)
(-88.322 0 -9.13282501171e-12)
(-88.322 0 1.91385420573e-12)
(-88.322 0 2.43351793541e-12)
(-88.322 0 -4.94857370549e-13)
(-88.322 0 -5.5757046528e-13)
(-88.322 0 2.42966229866e-12)
(-88.322 0 -5.95792419134e-13)
(-88.322 0 -2.43171770986e-12)
(-88.322 0 1.11479052078e-13)
(-88.322 0 3.78242236953e-13)
(-88.322 0 2.4209905034e-12)
(-88.322 0 -1.14176473463e-13)
(-88.322 0 1.85631181948e-12)
(-88.322 0 -3.50618297123e-13)
(-88.322 0 -5.80183846323e-13)
(-88.322 0 2.42663253374e-12)
(-88.322 0 1.24346590471e-12)
(-88.322 0 1.92867840262e-12)
(-88.322 0 -1.34409382721e-12)
(-88.322 0 1.02954769546e-12)
(-88.322 0 -2.41791039765e-12)
(-88.322 0 -1.90968250388e-13)
(-88.322 0 -2.25911275752e-12)
(-88.322 0 1.60129648954e-13)
(-88.322 0 -8.72372309604e-12)
(-88.322 0 -1.90030377287e-12)
(-88.322 0 1.48678828089e-13)
(-88.322 0 -1.52043110694e-12)
(-88.322 0 8.134971994e-13)
(-88.322 0 -1.54551048057e-12)
(-88.322 0 -1.86353737459e-12)
(-88.322 0 1.30279393179e-12)
(-88.322 0 2.01636176997e-13)
(-88.322 0 -1.57558437193e-12)
(-88.322 0 -4.12252959641e-12)
(-88.322 0 -1.24084667627e-12)
(-88.322 0 -1.53955737216e-12)
(-88.322 0 1.16083092233e-12)
(-88.322 0 -1.40948157233e-12)
(-88.322 0 -1.0957933988e-12)
(-88.322 0 2.9367821297e-13)
(-88.322 0 -2.95328074713e-13)
(-88.322 0 -6.99674052665e-13)
(-88.322 0 -1.10282493001e-12)
(-88.322 0 -4.26523134572e-13)
(-88.322 0 3.49120022427e-13)
(-88.322 0 -2.45059420204e-12)
(-88.322 0 -1.16602336676e-12)
(-88.322 0 2.42521678036e-13)
(-88.322 0 -6.498356005e-13)
(-88.322 0 -2.77233069737e-12)
(-88.322 0 -5.18289594517e-12)
(-88.322 0 -1.64803761657e-12)
(-88.322 0 -2.13391371339e-13)
(-88.322 0 -2.95115278869e-12)
(-88.322 0 -1.05205173811e-13)
(-88.322 0 -2.37317142405e-12)
(-88.322 0 -4.92251597695e-12)
(-88.322 0 -7.92273883802e-13)
(-88.322 0 -2.861791237e-13)
(-88.322 0 -3.80433163769e-12)
(-88.322 0 -3.70746610379e-12)
(-88.322 0 -4.0383350835e-12)
(-88.322 0 -2.27135639901e-13)
(-88.322 0 6.29228588338e-12)
(-88.322 0 -3.60688372327e-12)
(-88.322 0 -2.56181242278e-12)
(-88.322 0 1.00973448754e-12)
(-88.322 0 -3.96376884153e-13)
(-88.322 0 -3.15749992599e-12)
(-88.322 0 -3.30104928306e-12)
(-88.322 0 7.30549812215e-12)
(-88.322 0 -2.9388469504e-12)
(-88.322 0 4.53035436064e-14)
(-88.322 0 -3.28876245196e-12)
(-88.322 0 4.46726893199e-12)
(-88.322 0 -2.75930860794e-13)
(-88.322 0 1.01401364589e-12)
(-88.322 0 -3.74197281063e-13)
(-88.322 0 -3.28214183362e-12)
(-88.322 0 -4.95523892487e-12)
(-88.322 0 -1.87552451311e-12)
(-88.322 0 3.87303199731e-12)
(-88.322 0 1.14149176503e-12)
(-88.322 0 5.53578174362e-12)
(-88.322 0 4.68680517735e-13)
(-88.322 0 -2.74595266944e-12)
(-88.322 0 2.36682904462e-12)
(-88.322 0 -1.27306772145e-14)
(-88.322 0 1.64093212668e-14)
(-88.322 0 -1.16853443085e-12)
(-88.322 0 -3.74518370745e-13)
(-88.322 0 -1.42403844532e-13)
(-88.322 0 -1.48517196728e-13)
(-88.322 0 -3.44022773916e-12)
(-88.322 0 7.28373121973e-13)
(-88.322 0 -3.28387280525e-12)
(-88.322 0 1.94973676968e-12)
(-88.322 0 1.70570242041e-13)
(-88.322 0 -1.04844789958e-12)
(-88.322 0 -2.21657212542e-12)
(-88.322 0 -4.08678892773e-12)
(-88.322 0 -2.27037188302e-12)
(-88.322 0 -5.27467235095e-12)
(-88.322 0 -9.4952657811e-13)
(-88.322 0 3.48590926238e-13)
(-88.322 0 7.14272986118e-13)
(-88.322 0 -2.98541230797e-13)
(-88.322 0 -3.33682006214e-12)
(-88.322 0 -1.24681653359e-12)
(-88.322 0 2.23612280829e-12)
(-88.322 0 9.80750592667e-13)
(-88.322 0 3.20495880968e-12)
(-88.322 0 -2.49261100728e-12)
(-88.322 0 -2.65474836126e-13)
(-88.322 0 -2.21632211501e-13)
(-88.322 0 1.07494523997e-12)
(-88.322 0 3.19216640615e-12)
(-88.322 0 -1.10760476786e-12)
(-88.322 0 7.77050253639e-13)
(-88.322 0 3.70451735465e-13)
(-88.322 0 -9.47928750903e-13)
(-88.322 0 -2.13879442108e-13)
(-88.322 0 -3.19362196171e-14)
(-88.322 0 -2.4185455389e-12)
(-88.322 0 2.99749721119e-12)
(-88.322 0 2.2885860405e-12)
(-88.322 0 3.95375534565e-12)
(-88.322 0 4.83694701836e-12)
(-88.322 0 -3.33627299381e-12)
(-88.322 0 2.20325598911e-12)
(-88.322 0 2.91706264041e-13)
(-88.322 0 -6.15687113321e-14)
(-88.322 0 2.08196292256e-13)
(-88.322 0 -1.62200679919e-12)
(-88.322 0 1.24913221155e-12)
(-88.322 0 -1.18995718295e-12)
(-88.322 0 5.5218183278e-13)
(-88.322 0 2.25617181828e-12)
(-88.322 0 1.5259447425e-12)
(-88.322 0 9.07649409859e-13)
(-88.322 0 -1.76014823429e-12)
(-88.322 0 -2.67505603841e-12)
(-88.322 0 2.18050936955e-12)
(-88.322 0 -8.93688158225e-13)
(-88.322 0 2.34350628136e-12)
(-88.322 0 4.0986338887e-12)
(-88.322 0 3.09938158424e-12)
(-88.322 0 3.35213157704e-12)
(-88.322 0 -1.51974623433e-12)
(-88.322 0 -2.88495272142e-14)
(-88.322 0 -7.47989577244e-13)
(-88.322 0 3.6750324039e-12)
(-88.322 0 1.20894762418e-12)
(-88.322 0 -2.05557830897e-13)
(-88.322 0 -1.27490042234e-12)
(-88.322 0 -8.0806415406e-13)
(-88.322 0 1.39593330366e-12)
(-88.322 0 -6.9962540555e-13)
(-88.322 0 -1.61965724703e-14)
(-88.322 0 -8.36004629472e-13)
(-88.322 0 3.80290685119e-13)
(-88.322 0 2.10140407884e-12)
(-88.322 0 1.1903739297e-12)
(-88.322 0 2.66987036882e-13)
(-88.322 0 -3.51607696646e-12)
(-88.322 0 2.32116088288e-13)
(-88.322 0 -2.16727838922e-12)
(-88.322 0 -3.52938397555e-13)
(-88.322 0 -1.18288613183e-12)
(-88.322 0 -1.60826987004e-13)
(-88.322 0 -1.35936506944e-13)
(-88.322 0 6.33755423545e-13)
(-88.322 0 -2.82973777501e-13)
(-88.322 0 2.44124388773e-12)
(-88.322 0 6.82563253168e-14)
(-88.322 0 -2.28742500228e-13)
(-88.322 0 3.73670537249e-13)
(-88.322 0 2.05349033992e-12)
(-88.322 0 5.15276889013e-12)
(-88.322 0 5.51360007044e-13)
(-88.322 0 2.25438636564e-13)
(-88.322 0 2.95495130977e-12)
(-88.322 0 9.93485880536e-13)
(-88.322 0 2.39824811811e-12)
(-88.322 0 4.91876939631e-12)
(-88.322 0 5.61859691792e-13)
(-88.322 0 3.63463770239e-13)
(-88.322 0 5.02415447976e-12)
(-88.322 0 3.88246803217e-12)
(-88.322 0 4.20495888712e-12)
(-88.322 0 2.70337948047e-13)
(-88.322 0 -5.25614805636e-12)
(-88.322 0 3.58205591048e-12)
(-88.322 0 2.28442901746e-12)
(-88.322 0 -1.01197714779e-12)
(-88.322 0 2.11122834968e-14)
(-88.322 0 2.86489383146e-12)
(-88.322 0 3.18657546939e-12)
(-88.322 0 -7.32354601376e-12)
(-88.322 0 3.09578809616e-12)
(-88.322 0 5.27830611169e-14)
(-88.322 0 3.01994028028e-12)
(-88.322 0 -4.46922112097e-12)
(-88.322 0 2.20707351739e-13)
(-88.322 0 -1.03147109137e-12)
(-88.322 0 -8.45123658275e-15)
(-88.322 0 2.9933411291e-12)
(-88.322 0 4.9615547695e-12)
(-88.322 0 1.1810590892e-12)
(-88.322 0 -3.80805667057e-12)
(-88.322 0 -5.86219852428e-13)
(-88.322 0 -7.94503417796e-12)
(-88.322 0 3.18660106323e-12)
(-88.322 0 7.8044793002e-13)
(-88.322 0 -5.14015583166e-13)
(-88.322 0 -3.16205186574e-12)
(-88.322 0 4.47566634623e-14)
(-88.322 0 -1.82062409379e-14)
(-88.322 0 3.0313128533e-13)
(-88.322 0 2.63614747333e-12)
(-88.322 0 -1.23819329134e-12)
(-88.322 0 3.34139609022e-12)
(-88.322 0 -6.40585685551e-13)
(-88.322 0 2.77304073824e-12)
(-88.322 0 -2.34231325085e-12)
(-88.322 0 -2.27042721088e-12)
(-88.322 0 -1.64165289439e-13)
(-88.322 0 6.56441916404e-13)
(-88.322 0 4.31135097527e-12)
(-88.322 0 -7.7304557041e-13)
(-88.322 0 8.56529854259e-14)
(-88.322 0 1.06722737982e-13)
(-88.322 0 -1.8928366759e-13)
(-88.322 0 -7.13443256402e-13)
(-88.322 0 4.25367553868e-13)
(-88.322 0 2.69033527871e-12)
(-88.322 0 1.36445824364e-12)
(-88.322 0 -3.15209802609e-12)
(-88.322 0 -9.96599107729e-13)
(-88.322 0 -2.98833245222e-12)
(-88.322 0 1.84629822951e-12)
(-88.322 0 -1.00080854168e-13)
(-88.322 0 5.49910003083e-14)
(-88.322 0 -1.0843761937e-12)
(-88.322 0 -3.41271247905e-12)
(-88.322 0 -1.00624535082e-13)
(-88.322 0 -7.96208372162e-13)
(-88.322 0 -2.13596592536e-13)
(-88.322 0 7.84960726253e-13)
(-88.322 0 6.62033605915e-14)
(-88.322 0 -3.67710654e-13)
(-88.322 0 1.34420796445e-12)
(-88.322 0 -4.1167385196e-12)
(-88.322 0 -3.96917930407e-12)
(-88.322 0 -3.42095642435e-12)
(-88.322 0 4.31923368985e-12)
(-88.322 0 -1.42361953438e-12)
(-88.322 0 -4.4084888201e-12)
(-88.322 0 1.47583190932e-12)
(-88.322 0 4.5587588185e-13)
(-88.322 0 -1.12338487586e-12)
(-88.322 0 1.66053089209e-12)
(-88.322 0 -2.64291977282e-12)
(-88.322 0 -6.135361957e-13)
(-88.322 0 -9.16288930538e-13)
(-88.322 0 -3.18469168748e-12)
(-88.322 0 -1.51120250237e-12)
(-88.322 0 -7.67569335464e-13)
(-88.322 0 1.90877279341e-12)
(-88.322 0 2.96549860659e-12)
(-88.322 0 -3.0991225407e-12)
(-88.322 0 7.13650924069e-13)
(-88.322 0 -2.72579629706e-12)
(-88.322 0 4.60354389865e-12)
(-88.322 0 -3.43673634416e-12)
(-88.322 0 -4.79180785872e-12)
(-88.322 0 -3.3605361425e-13)
(-88.322 0 -5.78940380888e-13)
(-88.322 0 4.41357964192e-13)
(-88.322 0 1.8513633634e-13)
(-88.322 0 -4.99298560487e-13)
(-88.322 0 5.01278820828e-14)
(-88.322 0 8.1200702029e-14)
(-88.322 0 -1.85660229075e-12)
(-88.322 0 -3.12311093199e-13)
(-88.322 0 -4.47671080074e-13)
(-88.322 0 -1.13272305192e-12)
(-88.322 0 -5.43591523786e-13)
(-88.322 0 1.15307420095e-12)
(-88.322 0 1.13426818592e-14)
(-88.322 0 -1.69173401756e-15)
(-88.322 0 1.16869368878e-12)
(-88.322 0 2.99369078613e-12)
(-88.322 0 -2.17711254002e-12)
(-88.322 0 -3.24212247706e-12)
(-88.322 0 1.12498938381e-12)
(-88.322 0 1.17363687555e-12)
(-88.322 0 1.57912958927e-13)
(-88.322 0 2.70415858708e-13)
(-88.322 0 -1.09107745146e-12)
(-88.322 0 6.72531785143e-14)
(-88.322 0 -1.56705343688e-13)
(-88.322 0 -8.14633114248e-14)
(-88.322 0 -9.75469981228e-13)
(-88.322 0 -2.56319016178e-13)
(-88.322 0 9.78221789523e-13)
(-88.322 0 7.19770298344e-15)
(-88.322 0 -8.46966979338e-14)
(-88.322 0 -1.22396076382e-12)
(-88.322 0 -2.86435062102e-13)
(-88.322 0 -2.98100828555e-12)
(-88.322 0 -5.80078742207e-14)
(-88.322 0 8.97384021663e-16)
(-88.322 0 1.52005768879e-13)
(-88.322 0 -8.78376831522e-16)
(-88.322 0 -8.70849231466e-15)
(-88.322 0 -1.36630645764e-14)
(-88.322 0 -3.40974876882e-14)
(-88.322 0 -2.24505073014e-12)
(-88.322 0 -2.6940433745e-14)
(-88.322 0 8.01698815452e-15)
(-88.322 0 -1.43856200868e-14)
(-88.322 0 3.04830164263e-15)
(-88.322 0 3.75411294762e-13)
(-88.322 0 2.37448734263e-15)
(-88.322 0 3.17307161356e-15)
(-88.322 0 1.08147148103e-14)
(-88.322 0 -1.67653767495e-13)
(-88.322 0 -1.04323691845e-13)
(-88.322 0 -1.65482054879e-14)
(-88.322 0 5.34064404965e-15)
(-88.322 0 -2.30222238209e-15)
(-88.322 0 1.82736255157e-14)
(-88.322 0 3.84665443986e-13)
(-88.322 0 -9.31756925418e-15)
(-88.322 0 -1.85734121879e-15)
(-88.322 0 -1.24640119825e-14)
(-88.322 0 -3.37857509508e-15)
(-88.322 0 -1.19802695839e-13)
(-88.322 0 5.05243106251e-15)
(-88.322 0 -1.37096416018e-15)
(-88.322 0 6.70466399878e-14)
(-88.322 0 2.61060886691e-12)
(-88.322 0 3.20230184915e-12)
(-88.322 0 8.98371360505e-13)
(-88.322 0 -9.20256926469e-13)
(-88.322 0 3.19419397814e-12)
(-88.322 0 -2.55686368441e-12)
(-88.322 0 9.98133703096e-13)
(-88.322 0 3.09340598712e-12)
(-88.322 0 -7.69282146762e-14)
(-88.322 0 4.80935638816e-13)
(-88.322 0 4.13783706522e-13)
(-88.322 0 2.16711701629e-12)
(-88.322 0 1.23238725342e-12)
(-88.322 0 4.29245237076e-12)
(-88.322 0 1.90509019737e-12)
(-88.322 0 1.62819411006e-12)
(-88.322 0 4.05690877797e-12)
(-88.322 0 4.74429929286e-12)
(-88.322 0 -1.06813257373e-13)
(-88.322 0 -2.91903863542e-13)
(-88.322 0 -1.90390808188e-12)
(-88.322 0 -8.50123772517e-13)
(-88.322 0 -3.44889981671e-13)
(-88.322 0 7.92850403872e-13)
(-88.322 0 6.07908279614e-14)
(-88.322 0 -3.2023309245e-12)
(-88.322 0 3.31194924794e-13)
(-88.322 0 -2.30971780166e-12)
(-88.322 0 -7.56875062255e-13)
(-88.322 0 1.15239464686e-13)
(-88.322 0 1.54389646902e-12)
(-88.322 0 4.15999737884e-13)
(-88.322 0 4.83200411388e-14)
(-88.322 0 2.40405039223e-12)
(-88.322 0 -7.11938300961e-13)
(-88.322 0 2.76739042755e-13)
(-88.322 0 -1.37868935974e-14)
(-88.322 0 -2.21293215442e-12)
(-88.322 0 1.86531972209e-12)
(-88.322 0 1.9464971729e-12)
(-88.322 0 9.04709035182e-13)
(-88.322 0 -6.9075627425e-12)
(-88.322 0 2.72416130233e-12)
(-88.322 0 2.05320767853e-12)
(-88.322 0 -1.4181063201e-12)
(-88.322 0 -1.13000380049e-13)
(-88.322 0 7.8056385506e-13)
(-88.322 0 -6.49417348222e-13)
(-88.322 0 3.69297462682e-12)
(-88.322 0 1.97143253628e-12)
(-88.322 0 1.76550449811e-14)
(-88.322 0 6.91132296691e-13)
(-88.322 0 1.48379516923e-12)
(-88.322 0 1.68252776269e-13)
(-88.322 0 2.31052156115e-13)
(-88.322 0 2.31999692773e-14)
(-88.322 0 7.81267685666e-13)
(-88.322 0 -7.29834511429e-13)
(-88.322 0 6.46148205612e-13)
(-88.322 0 -4.91248526168e-12)
(-88.322 0 4.55029309128e-14)
(-88.322 0 4.05512257257e-12)
(-88.322 0 1.64940067675e-13)
(-88.322 0 7.27054192348e-13)
(-88.322 0 7.56643023983e-13)
(-88.322 0 -3.9120231778e-12)
(-88.322 0 -9.27478802116e-13)
(-88.322 0 5.10755554852e-13)
(-88.322 0 7.47920832883e-13)
(-88.322 0 2.61018120513e-12)
(-88.322 0 7.51977511563e-13)
(-88.322 0 -1.81290447833e-12)
(-88.322 0 -9.81725134589e-14)