/*--------------------------------*- C++ -*----------------------------------*\
  =========                 |
  \\      /  F ield         | OpenFOAM: The Open Source CFD Toolbox
   \\    /   O peration     | Website:  https://openfoam.org
    \\  /    A nd           | Version:  6
     \\/     M anipulation  |
\*---------------------------------------------------------------------------*/
FoamFile
{
    version     2.0;
    format      ascii;
    class       volVectorField;
    location    "2.9e-05";
    object      U;
}
// * * * * * * * * * * * * * * * * * * * * * * * * * * * * * * * * * * * * * //

dimensions      [0 1 -1 0 0 0 0];

internalField   nonuniform List<vector> 
8192
(
(-88.3220000002 0 -2.00706364263e-10)
(-88.3219999997 0 -2.63838270007e-11)
(-88.322 0 -4.15390604487e-11)
(-88.322 0 -4.86730617753e-11)
(-88.3219999999 0 -1.65626492587e-11)
(-88.322 0 1.59758989927e-12)
(-88.322 0 -1.41457418196e-12)
(-88.322 0 -5.1702076107e-12)
(-88.322 0 -5.26751906081e-11)
(-88.322 0 -2.418420226e-10)
(-88.322 0 -1.9769303058e-10)
(-88.322 0 1.13784183783e-10)
(-88.322 0 2.26500454328e-10)
(-88.322 0 -1.73005485679e-10)
(-88.322 0 -3.56051751024e-10)
(-88.322 0 1.06957825873e-10)
(-88.322 0 -2.33175757017e-11)
(-88.322 0 1.93963654926e-10)
(-88.322 0 -2.50038556343e-10)
(-88.322 0 -1.62086852726e-10)
(-88.322 0 1.90909165973e-10)
(-88.322 0 1.96544223964e-10)
(-88.322 0 -8.8835085643e-11)
(-88.322 0 -1.36245664914e-10)
(-88.322 0 2.80159285939e-11)
(-88.322 0 2.04200502886e-11)
(-88.322 0 2.73210463291e-11)
(-88.322 0 2.39895864828e-11)
(-88.322 0 2.3032929856e-11)
(-88.322 0 -1.71645875869e-11)
(-88.3219999999 0 4.44725941367e-11)
(-88.322 0 2.50750295256e-11)
(-88.3219999996 0 -1.12382608731e-11)
(-88.3220000003 0 2.0949909061e-10)
(-88.3220000008 0 -1.52944995253e-10)
(-88.3219999997 0 -1.94719617832e-10)
(-88.322 0 7.7389139978e-12)
(-88.3219999998 0 -2.08838732554e-10)
(-88.3219999996 0 9.15020982526e-11)
(-88.3220000002 0 1.28110194781e-11)
(-88.322 0 1.84550181883e-11)
(-88.322 0 -1.94005063031e-12)
(-88.322 0 -1.09504748891e-11)
(-88.322 0 -5.04952183328e-12)
(-88.322 0 -2.57554188079e-11)
(-88.322 0 -9.81655720707e-12)
(-88.322 0 -5.13975715115e-12)
(-88.322 0 -1.20376336602e-12)
(-88.322 0 1.06555295929e-12)
(-88.322 0 -1.28465538906e-11)
(-88.322 0 -1.75630953464e-12)
(-88.322 0 -6.99163229725e-12)
(-88.322 0 -2.14084026281e-11)
(-88.3219999999 0 5.58745284647e-11)
(-88.3220000003 0 4.86057320035e-11)
(-88.3220000001 0 -8.72687073378e-11)
(-88.3219999999 0 -1.51233728807e-11)
(-88.322 0 -4.37380337039e-11)
(-88.322 0 -1.62709020633e-11)
(-88.3219999998 0 -3.79669349482e-11)
(-88.3219999995 0 1.0662481962e-10)
(-88.3219999998 0 2.05500002928e-10)
(-88.3220000003 0 1.98779056354e-10)
(-88.3220000009 0 8.56559438669e-11)
(-88.322 0 6.04257083339e-11)
(-88.322 0 -8.68379105964e-12)
(-88.322 0 1.94907264717e-11)
(-88.322 0 1.02477993e-11)
(-88.322 0 1.52949484338e-11)
(-88.322 0 -5.68737838743e-12)
(-88.322 0 -2.18960760336e-13)
(-88.3220000001 0 1.10041468657e-13)
(-88.3220000004 0 -1.05986726887e-12)
(-88.3220000003 0 -1.22244559907e-11)
(-88.3219999993 0 -1.79127627194e-12)
(-88.3219999991 0 -2.25688149218e-11)
(-88.3220000006 0 -3.99645518649e-12)
(-88.3220000012 0 -1.71449149569e-11)
(-88.3219999995 0 -6.03878036418e-11)
(-88.3219999994 0 3.24340372164e-11)
(-88.3219999998 0 -1.28966419768e-12)
(-88.3220000005 0 2.70691009427e-11)
(-88.3220000007 0 -4.47462815845e-11)
(-88.3219999991 0 -3.04214125235e-11)
(-88.3219999993 0 2.61537317908e-12)
(-88.3220000006 0 3.57976926082e-11)
(-88.3220000006 0 5.0226296985e-11)
(-88.3219999998 0 -3.52477725369e-11)
(-88.3219999997 0 1.62498169921e-10)
(-88.322 0 -1.21121247296e-10)
(-88.322 0 1.31384188552e-10)
(-88.322 0 1.18078158329e-10)
(-88.322 0 6.55708375302e-11)
(-88.322 0 3.68726846133e-11)
(-88.322 0 1.3534973052e-13)
(-88.322 0 -2.77625700887e-11)
(-88.322 0 -4.15398894257e-12)
(-88.322 0 -1.94402523513e-10)
(-88.322 0 1.16946310737e-10)
(-88.322 0 1.70754374949e-10)
(-88.322 0 -2.10347932526e-11)
(-88.322 0 9.79745568669e-11)
(-88.322 0 -8.77155696713e-11)
(-88.322 0 -1.74115864932e-11)
(-88.322 0 9.84216958398e-13)
(-88.322 0 -2.32805795234e-12)
(-88.322 0 -1.17181607142e-11)
(-88.322 0 7.73114654959e-12)
(-88.322 0 -1.52820834171e-10)
(-88.322 0 -9.18563279158e-11)
(-88.322 0 -1.27951131887e-10)
(-88.322 0 -9.98126860507e-11)
(-88.322 0 -1.12617336144e-10)
(-88.322 0 -7.59269008443e-11)
(-88.322 0 1.10063718079e-10)
(-88.322 0 1.50752976748e-11)
(-88.322 0 6.17941629538e-12)
(-88.322 0 1.26648966228e-11)
(-88.322 0 -9.65027176908e-11)
(-88.322 0 2.12844914246e-10)
(-88.322 0 -5.66721456272e-11)
(-88.322 0 -1.94517663143e-10)
(-88.322 0 -2.60353153025e-10)
(-88.322 0 1.45018602989e-10)
(-88.322 0 5.68149903068e-11)
(-88.322 0 -4.4851876321e-10)
(-88.322 0 -4.0990527159e-10)
(-88.322 0 -1.68834778152e-10)
(-88.3219999999 0 1.19710005582e-11)
(-88.3219999998 0 5.55767755618e-12)
(-88.322 0 -2.75366309609e-12)
(-88.322 0 2.77161141636e-11)
(-88.322 0 6.56645462709e-12)
(-88.322 0 1.07032331236e-11)
(-88.322 0 2.714476198e-12)
(-88.322 0 8.90912271019e-12)
(-88.322 0 3.89574734911e-11)
(-88.322 0 2.32701947945e-10)
(-88.322 0 1.91115624895e-10)
(-88.322 0 -1.09208443358e-10)
(-88.322 0 -2.28926272752e-10)
(-88.3220000001 0 1.51161201134e-10)
(-88.3219999999 0 3.36542807196e-10)
(-88.3219999999 0 -1.06174754669e-10)
(-88.322 0 2.15392959253e-11)
(-88.3220000001 0 -1.77427542904e-10)
(-88.3220000001 0 2.44402765163e-10)
(-88.3219999999 0 1.51064742278e-10)
(-88.3219999998 0 -1.90538139129e-10)
(-88.3219999999 0 -1.81651292187e-10)
(-88.3220000002 0 1.073948645e-10)
(-88.3219999998 0 1.3700679674e-10)
(-88.3220000002 0 -7.99320338482e-12)
(-88.322 0 -2.04426747728e-11)
(-88.3219999995 0 -6.22995189741e-12)
(-88.3220000001 0 -5.08082676954e-12)
(-88.3220000002 0 7.99732850965e-11)
(-88.3220000001 0 -5.9732130952e-11)
(-88.322 0 6.947304914e-11)
(-88.3220000001 0 -4.23940697278e-13)
(-88.322 0 -8.63632039526e-11)
(-88.322 0 1.16124555948e-10)
(-88.322 0 1.99889931676e-10)
(-88.322 0 -2.9163297909e-11)
(-88.3220000002 0 -1.81659722346e-10)
(-88.322 0 2.31102409338e-10)
(-88.3219999998 0 2.26772110829e-10)
(-88.322 0 -2.3687451604e-10)
(-88.322 0 -1.68272702768e-10)
(-88.322 0 -2.29944148903e-11)
(-88.322 0 -7.79770029174e-11)
(-88.3220000003 0 -2.99455193416e-11)
(-88.3220000002 0 -6.24682182311e-11)
(-88.3219999999 0 1.13104314564e-11)
(-88.322 0 -1.49108750073e-10)
(-88.3219999999 0 -3.05986349057e-10)
(-88.322 0 9.30921277126e-11)
(-88.3219999996 0 -5.33481204151e-13)
(-88.3219999998 0 -6.56465200212e-11)
(-88.3220000002 0 6.43964412139e-11)
(-88.322 0 -1.6244414537e-10)
(-88.3220000001 0 1.18801151193e-10)
(-88.3219999999 0 -1.98403325889e-11)
(-88.3220000001 0 -1.37353689628e-10)
(-88.3220000007 0 -1.05853449505e-10)
(-88.3220000004 0 -8.6513082704e-11)
(-88.3219999993 0 -6.41895145455e-11)
(-88.3219999991 0 -5.26917892485e-11)
(-88.3220000007 0 -5.00664442576e-11)
(-88.3220000007 0 2.2877324577e-11)
(-88.3219999997 0 -1.98931698487e-12)
(-88.3219999999 0 9.483015092e-12)
(-88.322 0 1.57537918692e-10)
(-88.322 0 4.272183903e-11)
(-88.322 0 1.83453427492e-11)
(-88.322 0 2.73026582841e-11)
(-88.322 0 -9.4167080292e-12)
(-88.322 0 -6.56352996628e-13)
(-88.322 0 1.22265952406e-12)
(-88.322 0 1.02219938402e-11)
(-88.322 0 4.43621588805e-12)
(-88.322 0 2.59298465686e-11)
(-88.322 0 8.25617604668e-12)
(-88.322 0 9.27919656014e-12)
(-88.322 0 9.79190243499e-12)
(-88.322 0 3.91123439822e-11)
(-88.322 0 7.06044611663e-11)
(-88.322 0 -3.74558002717e-11)
(-88.322 0 1.05170358661e-12)
(-88.322 0 -4.07522949803e-11)
(-88.322 0 4.21156418679e-11)
(-88.322 0 8.13897765582e-11)
(-88.322 0 -1.26013218531e-10)
(-88.322 0 -3.20104250706e-10)
(-88.322 0 8.62975244189e-11)
(-88.322 0 1.29723972126e-10)
(-88.322 0 -7.60918757272e-11)
(-88.322 0 1.90218579521e-10)
(-88.322 0 -9.35051111412e-11)
(-88.3219999999 0 -7.22255674763e-11)
(-88.3220000001 0 -7.00899120645e-11)
(-88.322 0 -3.16927181278e-11)
(-88.3219999999 0 1.2195180025e-11)
(-88.3220000004 0 -2.28453494961e-11)
(-88.3219999998 0 -1.25534470224e-11)
(-88.3219999995 0 -6.24559227433e-12)
(-88.3220000003 0 1.97928920537e-11)
(-88.3220000007 0 2.22291919078e-11)
(-88.3219999995 0 -7.5854631179e-12)
(-88.3219999992 0 1.10404109661e-10)
(-88.3220000009 0 2.08163142587e-12)
(-88.3220000008 0 1.32383545584e-12)
(-88.3219999996 0 -7.9979485957e-12)
(-88.3219999999 0 -5.56946606016e-12)
(-88.322 0 9.3565842407e-12)
(-88.322 0 -4.2518457673e-12)
(-88.3219999999 0 1.73490047081e-10)
(-88.3220000002 0 9.30991563269e-11)
(-88.3220000006 0 1.24510834612e-10)
(-88.3219999995 0 8.66181825855e-11)
(-88.3219999994 0 1.20146750163e-10)
(-88.3220000003 0 8.77534158097e-11)
(-88.3219999999 0 -1.14287746259e-10)
(-88.3220000002 0 2.91958407591e-11)
(-88.3219999998 0 -5.80534348318e-11)
(-88.3219999997 0 1.50662997557e-10)
(-88.3220000005 0 2.12662438729e-10)
(-88.3220000001 0 -3.03732133097e-10)
(-88.3219999999 0 -2.28217488703e-11)
(-88.322 0 2.31111597339e-10)
(-88.3219999999 0 1.45432068842e-10)
(-88.3219999999 0 -8.76531550459e-11)
(-88.3219999999 0 -2.96571099876e-10)
(-88.3219999999 0 4.18576453355e-10)
(-88.322 0 2.65233341683e-10)
(-88.322 0 1.49382078882e-10)
(-88.3220000001 0 -7.12130876041e-11)
(-88.322 0 -1.82047432704e-11)
(-88.322 0 1.23333319046e-11)
(-88.322 0 6.80632856591e-12)
(-88.322 0 -1.33395645526e-11)
(-88.322 0 5.309175294e-12)
(-88.322 0 6.86284287018e-12)
(-88.322 0 1.57375450645e-11)
(-88.322 0 1.0467220279e-11)
(-88.322 0 2.85382534243e-12)
(-88.322 0 4.02143543318e-12)
(-88.322 0 -3.2273805098e-11)
(-88.322 0 -4.07988482938e-11)
(-88.322 0 -8.13231907955e-12)
(-88.322 0 6.09175711044e-12)
(-88.322 0 6.13982921126e-12)
(-88.322 0 1.116209878e-11)
(-88.322 0 6.50800638827e-12)
(-88.3219999999 0 -7.02256019484e-13)
(-88.3220000002 0 7.79025401799e-12)
(-88.3220000006 0 3.50521332225e-12)
(-88.3219999995 0 1.7852411127e-12)
(-88.3219999993 0 2.62060721349e-12)
(-88.3220000001 0 -2.07520867049e-11)
(-88.322 0 8.34710983174e-12)
(-88.3220000001 0 7.5786742577e-12)
(-88.322 0 6.1623191773e-11)
(-88.3220000001 0 8.17320204002e-11)
(-88.3220000001 0 1.0939215312e-10)
(-88.322 0 1.92600826879e-11)
(-88.322 0 7.88994865923e-11)
(-88.3220000001 0 1.1160836552e-10)
(-88.322 0 -2.16303950353e-11)
(-88.322 0 -1.50067598266e-10)
(-88.322 0 -2.89349454702e-10)
(-88.322 0 -8.55275663877e-11)
(-88.322 0 2.11699076704e-10)
(-88.322 0 -2.64676006926e-10)
(-88.322 0 -2.23042591304e-10)
(-88.322 0 2.07838246099e-10)
(-88.322 0 1.35059154525e-10)
(-88.322 0 2.45623174405e-11)
(-88.322 0 6.59445104198e-11)
(-88.322 0 2.66432791923e-11)
(-88.322 0 4.45129020826e-11)
(-88.322 0 -1.12690322907e-11)
(-88.322 0 1.43178766545e-10)
(-88.322 0 2.87978634602e-10)
(-88.322 0 -8.66142454625e-11)
(-88.322 0 -9.5487700804e-13)
(-88.3219999999 0 5.60302886241e-11)
(-88.3220000001 0 -3.64478116228e-11)
(-88.3219999997 0 1.25730115184e-10)
(-88.3219999996 0 -1.13102539744e-10)
(-88.3220000008 0 -1.49332483802e-11)
(-88.3220000005 0 -1.16225433222e-10)
(-88.3219999996 0 -5.78568727278e-11)
(-88.322 0 6.96679911164e-11)
(-88.3219999999 0 -2.2801590202e-10)
(-88.322 0 2.61190863126e-10)
(-88.3219999997 0 1.50131392889e-10)
(-88.3219999996 0 1.29577702388e-10)
(-88.3220000002 0 6.53686588955e-11)
(-88.3220000001 0 4.36114132856e-11)
(-88.3220000001 0 -1.24944855449e-11)
(-88.3219999999 0 -3.45305366874e-11)
(-88.322 0 7.54056534958e-11)
(-88.322 0 2.32372320737e-10)
(-88.322 0 -1.59967076411e-10)
(-88.322 0 2.11517621082e-10)
(-88.322 0 2.4880624333e-10)
(-88.322 0 -6.86441335338e-11)
(-88.322 0 -2.06216901353e-11)
(-88.322 0 2.19369914568e-11)
(-88.322 0 -9.29576461967e-13)
(-88.322 0 1.93154302141e-11)
(-88.322 0 4.70503750457e-11)
(-88.322 0 -6.83106106987e-11)
(-88.322 0 1.78038508801e-10)
(-88.322 0 1.78386992271e-10)
(-88.322 0 1.3052681636e-10)
(-88.322 0 6.7573326686e-11)
(-88.322 0 -5.88008232361e-11)
(-88.322 0 -6.44171445605e-11)
(-88.322 0 2.89423561384e-10)
(-88.322 0 4.46618455768e-10)
(-88.322 0 -1.69642327862e-10)
(-88.322 0 -2.37631449347e-10)
(-88.322 0 -1.31862794022e-10)
(-88.3219999999 0 1.58458677469e-10)
(-88.3219999999 0 7.91264914401e-11)
(-88.3219999998 0 -3.90345983643e-11)
(-88.3220000003 0 1.37637962763e-10)
(-88.3220000001 0 9.36331339763e-11)
(-88.3219999997 0 5.8230778973e-11)
(-88.3220000006 0 -1.60463025283e-10)
(-88.3220000003 0 3.62118636097e-11)
(-88.322 0 1.17591782305e-11)
(-88.3220000002 0 5.4990573117e-12)
(-88.3219999997 0 -1.51389738319e-12)
(-88.3219999999 0 4.35170323994e-12)
(-88.322 0 5.69332058082e-12)
(-88.322 0 -4.07468417046e-12)
(-88.322 0 1.792333354e-11)
(-88.322 0 9.39426543058e-12)
(-88.322 0 -6.89980856168e-12)
(-88.322 0 1.55426470305e-12)
(-88.322 0 1.29480234928e-12)
(-88.322 0 3.77020695654e-13)
(-88.322 0 -2.43509581448e-13)
(-88.322 0 2.21118443387e-12)
(-88.322 0 2.46762318594e-11)
(-88.322 0 -1.51437691013e-11)
(-88.322 0 -1.04502999278e-11)
(-88.322 0 9.30307834179e-12)
(-88.3220000001 0 -3.70393042768e-11)
(-88.322 0 9.93906381685e-11)
(-88.322 0 -1.97141895272e-10)
(-88.3220000005 0 -1.58328987929e-10)
(-88.3220000002 0 1.83676065015e-10)
(-88.3219999995 0 1.0606394642e-10)
(-88.3220000003 0 1.21886194392e-11)
(-88.3219999995 0 1.25801309532e-10)
(-88.3219999992 0 -2.19523269659e-11)
(-88.3220000001 0 1.34977901798e-10)
(-88.3220000001 0 -1.58979926887e-10)
(-88.3220000002 0 -3.38353897334e-11)
(-88.3220000002 0 -6.01910867959e-11)
(-88.3220000001 0 8.67474059406e-11)
(-88.3219999999 0 1.36860022089e-11)
(-88.3219999995 0 -1.28792029739e-11)
(-88.3220000005 0 5.36846794136e-14)
(-88.322 0 1.38344341555e-12)
(-88.3219999992 0 -8.11921202233e-13)
(-88.3220000006 0 -1.01323052143e-11)
(-88.3220000005 0 -7.42612349058e-12)
(-88.3219999998 0 5.51279170029e-12)
(-88.322 0 -8.61372573912e-11)
(-88.322 0 1.46790820036e-10)
(-88.3219999999 0 -2.38697940527e-10)
(-88.3220000001 0 -2.99789700673e-10)
(-88.3219999997 0 -5.58444727337e-11)
(-88.3219999995 0 -6.39039561665e-11)
(-88.3220000001 0 -3.19481178359e-11)
(-88.3220000002 0 -7.1795916718e-12)
(-88.3220000004 0 -7.49946376878e-12)
(-88.3220000002 0 1.94538647551e-12)
(-88.3219999995 0 -1.13659393205e-12)
(-88.3219999996 0 -3.05570315539e-13)
(-88.3220000004 0 3.04736605604e-12)
(-88.3220000006 0 -2.97299063873e-12)
(-88.322 0 1.63877752995e-11)
(-88.3219999993 0 -2.87637504938e-11)
(-88.3219999997 0 3.25733378078e-12)
(-88.3220000004 0 -6.9110075887e-11)
(-88.322 0 -7.69492004019e-11)
(-88.3219999999 0 -1.92888179931e-10)
(-88.3220000001 0 3.86686797496e-11)
(-88.3220000006 0 -1.52297021322e-10)
(-88.3220000002 0 -1.64499674749e-10)
(-88.3219999996 0 2.43928709374e-10)
(-88.322 0 7.91859767941e-11)
(-88.322 0 -1.37125586785e-10)
(-88.322 0 -2.77038645001e-11)
(-88.322 0 -7.91360739809e-11)
(-88.322 0 2.84914902132e-10)
(-88.322 0 2.0059956813e-11)
(-88.322 0 -9.54543374455e-11)
(-88.322 0 5.47565296808e-12)
(-88.322 0 2.43331440793e-12)
(-88.322 0 3.34182817446e-13)
(-88.322 0 7.08133663703e-12)
(-88.322 0 2.02013447139e-11)
(-88.322 0 7.98458560008e-13)
(-88.322 0 -4.9028011924e-14)
(-88.322 0 -4.55133095914e-13)
(-88.322 0 1.16233239626e-12)
(-88.322 0 7.54157504539e-13)
(-88.322 0 9.03572866277e-12)
(-88.322 0 -9.16295159627e-12)
(-88.322 0 1.96624181379e-11)
(-88.322 0 -2.72295245444e-11)
(-88.322 0 2.02844759533e-11)
(-88.322 0 2.07527092563e-10)
(-88.322 0 1.07144533596e-10)
(-88.322 0 4.34968894825e-12)
(-88.322 0 2.84365152843e-10)
(-88.322 0 -1.80075123297e-10)
(-88.322 0 -8.45775931406e-11)
(-88.322 0 5.43866757309e-11)
(-88.322 0 6.32392464988e-11)
(-88.322 0 -2.89369391736e-11)
(-88.322 0 3.94994691361e-11)
(-88.322 0 4.52415243682e-11)
(-88.322 0 -7.46379206232e-11)
(-88.322 0 -2.22829378054e-10)
(-88.322 0 1.73885252012e-10)
(-88.322 0 -2.09238604503e-10)
(-88.322 0 -2.49140069433e-10)
(-88.322 0 6.7756959102e-11)
(-88.3220000002 0 2.08125409551e-11)
(-88.3219999997 0 -3.24746996182e-11)
(-88.3220000004 0 5.72640466535e-12)
(-88.3220000009 0 -1.32336006908e-11)
(-88.3219999996 0 -3.05616208494e-11)
(-88.3219999995 0 5.23772686165e-11)
(-88.3219999999 0 -1.79533679491e-10)
(-88.3219999999 0 -1.63946999858e-10)
(-88.322 0 -1.23146835175e-10)
(-88.322 0 -5.8118032179e-11)
(-88.322 0 6.39834211824e-11)
(-88.322 0 1.44891474527e-11)
(-88.322 0 -1.57608993873e-10)
(-88.322 0 -1.67828688501e-10)
(-88.322 0 3.41153559524e-11)
(-88.322 0 1.476228181e-10)
(-88.322 0 4.69298532758e-11)
(-88.322 0 -2.18264727195e-10)
(-88.322 0 -1.19617070586e-10)
(-88.322 0 -1.10103996667e-11)
(-88.322 0 -1.47568111643e-10)
(-88.322 0 -9.13789075721e-11)
(-88.3220000001 0 -9.51631927404e-11)
(-88.3219999998 0 1.84115218521e-10)
(-88.3219999998 0 -1.51841224951e-11)
(-88.3220000007 0 -7.26003979226e-12)
(-88.3220000004 0 -1.90730367876e-11)
(-88.3219999996 0 -3.73669869175e-12)
(-88.3219999992 0 2.56532117831e-11)
(-88.3219999999 0 -5.41832060187e-12)
(-88.3220000007 0 7.80493490819e-12)
(-88.3220000001 0 -1.51441230867e-11)
(-88.3219999998 0 -4.89941847713e-12)
(-88.322 0 1.45627359535e-11)
(-88.322 0 1.62704304592e-12)
(-88.322 0 -3.77797186419e-12)
(-88.322 0 -2.09933835483e-11)
(-88.322 0 -5.69413713724e-12)
(-88.322 0 1.2094628884e-12)
(-88.322 0 -1.36231150384e-11)
(-88.322 0 6.00097688843e-12)
(-88.322 0 3.62251986591e-12)
(-88.322 0 -9.72224277683e-12)
(-88.322 0 3.86948734454e-12)
(-88.322 0 -3.12743719429e-11)
(-88.322 0 1.92154882065e-10)
(-88.3220000001 0 1.51326986551e-10)
(-88.322 0 -2.32921496046e-10)
(-88.322 0 -1.35077489124e-10)
(-88.322 0 -2.02324387832e-11)
(-88.3219999999 0 -1.62882753408e-10)
(-88.3219999999 0 4.61660388955e-11)
(-88.3219999997 0 -1.50015410921e-10)
(-88.3219999998 0 1.64080464584e-10)
(-88.3220000004 0 1.03212049743e-11)
(-88.3220000002 0 2.13255636753e-11)
(-88.322 0 -5.91975133502e-11)
(-88.3220000001 0 -2.33101691078e-11)
(-88.322 0 -4.42599820602e-12)
(-88.322 0 -9.39102442238e-12)
(-88.322 0 4.60793898204e-12)
(-88.322 0 2.16174833193e-12)
(-88.322 0 1.6562112729e-13)
(-88.322 0 -8.52963550229e-12)
(-88.322 0 -8.78470361952e-12)
(-88.322 0 7.29981426658e-11)
(-88.322 0 -1.53853265596e-10)
(-88.322 0 2.66895965624e-10)
(-88.322 0 3.49039695877e-10)
(-88.322 0 5.97137723587e-11)
(-88.322 0 5.89175815823e-11)
(-88.322 0 2.50058508811e-11)
(-88.322 0 -3.32845050002e-12)
(-88.322 0 5.6019701431e-12)
(-88.322 0 1.34023348571e-12)
(-88.322 0 -2.40909830674e-13)
(-88.322 0 -5.02208194327e-12)
(-88.322 0 3.23786467828e-12)
(-88.322 0 7.4385828919e-12)
(-88.322 0 1.65636728241e-12)
(-88.322 0 7.96902454525e-12)
(-88.322 0 -1.06919176352e-11)
(-88.322 0 3.6117692298e-12)
(-88.322 0 5.52457013609e-12)
(-88.322 0 -3.83195840037e-12)
(-88.322 0 5.60970465807e-12)
(-88.322 0 1.28684039729e-11)
(-88.322 0 3.12572153192e-11)
(-88.322 0 -1.01534658061e-10)
(-88.322 0 1.64441599126e-10)
(-88.322 0 9.14921075277e-11)
(-88.322 0 -1.27035861347e-11)
(-88.322 0 1.17302195531e-11)
(-88.322 0 -3.9434596344e-10)
(-88.322 0 1.004353345e-11)
(-88.322 0 1.16622628921e-10)
(-88.322 0 1.11497482465e-11)
(-88.322 0 -3.24805695466e-12)
(-88.322 0 1.25893140607e-11)
(-88.322 0 -1.36936291732e-11)
(-88.322 0 -1.6740072816e-11)
(-88.322 0 -4.79302017871e-12)
(-88.322 0 6.99980491854e-12)
(-88.322 0 1.15744747312e-11)
(-88.322 0 1.05325016968e-11)
(-88.322 0 1.43144969691e-11)
(-88.322 0 -3.75565977534e-12)
(-88.322 0 -3.29822031686e-12)
(-88.3219999996 0 -2.65443295482e-12)
(-88.3219999997 0 3.13431939674e-11)
(-88.3220000009 0 3.97663707623e-11)
(-88.3220000006 0 -9.23253952581e-11)
(-88.3219999996 0 -4.67742775426e-11)
(-88.3220000001 0 -5.68223907846e-11)
(-88.3219999999 0 -1.76216142506e-11)
(-88.3219999999 0 -2.63830512816e-11)
(-88.3219999997 0 6.72795006498e-11)
(-88.3219999996 0 -3.70721402046e-10)
(-88.3220000003 0 -2.36289065414e-10)
(-88.322 0 -9.37890622958e-11)
(-88.3219999999 0 -4.40440535288e-12)
(-88.3219999999 0 4.94377607428e-11)
(-88.322 0 -1.61586592421e-11)
(-88.322 0 -7.80320261923e-12)
(-88.322 0 9.29244259567e-12)
(-88.322 0 4.49477167746e-12)
(-88.322 0 -1.57895087464e-11)
(-88.322 0 -3.21323125635e-11)
(-88.322 0 -1.46020145001e-11)
(-88.322 0 -1.54197123826e-11)
(-88.322 0 -2.88287566837e-12)
(-88.322 0 -9.45989227111e-12)
(-88.322 0 -6.47000696909e-12)
(-88.322 0 -3.20719234271e-13)
(-88.322 0 -3.28993760443e-12)
(-88.322 0 -4.77716912308e-12)
(-88.322 0 -7.62616908568e-12)
(-88.322 0 -4.98580690908e-12)
(-88.322 0 9.96290015062e-12)
(-88.322 0 -3.42119525628e-11)
(-88.322 0 -3.78830316593e-11)
(-88.322 0 1.06912115933e-10)
(-88.322 0 1.08222057133e-10)
(-88.322 0 -1.59925692112e-10)
(-88.322 0 -1.67527990143e-10)
(-88.322 0 -8.74138925364e-11)
(-88.322 0 8.84883736058e-12)
(-88.322 0 -4.68735172816e-11)
(-88.322 0 2.57251124078e-11)
(-88.322 0 -7.56971077734e-11)
(-88.322 0 -1.67388658594e-10)
(-88.322 0 -1.418923793e-10)
(-88.3219999995 0 -4.3316588406e-12)
(-88.3220000003 0 -1.80302918731e-10)
(-88.3220000007 0 -2.29834323477e-10)
(-88.3219999998 0 -2.65283877097e-10)
(-88.322 0 1.91271193759e-10)
(-88.3219999999 0 2.59818609582e-10)
(-88.3219999997 0 -2.24330583057e-10)
(-88.322 0 -2.37843121414e-10)
(-88.322 0 1.02572872941e-10)
(-88.322 0 2.67278488619e-11)
(-88.322 0 -2.135063607e-10)
(-88.322 0 -2.07262313371e-10)
(-88.322 0 2.02585687485e-10)
(-88.322 0 -1.19032962884e-10)
(-88.322 0 4.89908137238e-11)
(-88.322 0 -2.59664025234e-10)
(-88.322 0 2.53457681961e-10)
(-88.322 0 -1.38664528024e-11)
(-88.322 0 1.45009802754e-11)
(-88.322 0 2.6941329059e-11)
(-88.3219999999 0 -9.88012038427e-11)
(-88.3219999999 0 -2.94948144506e-10)
(-88.3220000003 0 -2.73153966207e-10)
(-88.3220000002 0 1.02272846139e-11)
(-88.3219999999 0 2.89329138086e-10)
(-88.3219999999 0 2.90418873178e-10)
(-88.3219999999 0 -9.06474901005e-11)
(-88.3219999997 0 -1.91957736384e-10)
(-88.3220000003 0 1.79570475718e-10)
(-88.3220000004 0 -3.46265427576e-11)
(-88.3219999998 0 -7.49452143828e-11)
(-88.3219999999 0 2.60892311469e-11)
(-88.322 0 4.32863432022e-11)
(-88.3220000001 0 2.46556759596e-11)
(-88.3220000001 0 1.02628873393e-11)
(-88.322 0 -2.94510073938e-11)
(-88.322 0 6.82395274773e-12)
(-88.322 0 -3.59903747049e-11)
(-88.322 0 1.89700258151e-11)
(-88.322 0 2.09153524462e-11)
(-88.322 0 -3.44061457311e-11)
(-88.322 0 -1.49908650451e-10)
(-88.322 0 -9.44948020762e-11)
(-88.322 0 -1.66118907816e-10)
(-88.322 0 -1.95334103069e-10)
(-88.322 0 -1.45466942237e-10)
(-88.322 0 2.6832727432e-11)
(-88.322 0 2.42207064814e-11)
(-88.322 0 2.28050999832e-11)
(-88.322 0 -8.3673838511e-11)
(-88.322 0 -1.61521563366e-10)
(-88.3220000001 0 1.03666651766e-10)
(-88.3219999997 0 1.75429579812e-10)
(-88.3219999997 0 2.55786846658e-10)
(-88.3220000005 0 -1.33413677892e-10)
(-88.3220000005 0 -6.79785461479e-11)
(-88.3219999998 0 6.42475512128e-11)
(-88.3219999997 0 5.62428139451e-11)
(-88.3219999999 0 5.89246718288e-11)
(-88.322 0 2.59247323171e-11)
(-88.3220000001 0 2.42147985386e-11)
(-88.3220000004 0 1.65718067723e-11)
(-88.3220000001 0 -2.60722773243e-11)
(-88.3219999997 0 1.21983256209e-11)
(-88.322 0 -1.53647290981e-11)
(-88.3220000005 0 -2.28388746968e-10)
(-88.3220000002 0 1.54400556183e-10)
(-88.3219999991 0 2.02125179871e-10)
(-88.3219999989 0 1.09719745523e-10)
(-88.3220000008 0 2.66952450759e-10)
(-88.322000001 0 -8.10000289491e-11)
(-88.3219999994 0 1.45366340944e-11)
(-88.3219999995 0 2.76145802004e-12)
(-88.3220000006 0 -1.07539350855e-12)
(-88.3220000005 0 3.20609114892e-12)
(-88.3219999992 0 -1.21596794867e-11)
(-88.3219999998 0 1.22870222032e-11)
(-88.3220000003 0 -1.2401092067e-11)
(-88.3220000003 0 -4.1208554958e-11)
(-88.3219999996 0 5.85363044052e-11)
(-88.3219999995 0 4.74700168247e-11)
(-88.3220000005 0 1.04315005935e-10)
(-88.3219999999 0 -1.27661366803e-10)
(-88.3220000002 0 -1.4835534928e-10)
(-88.3220000003 0 1.05583927172e-10)
(-88.322 0 -1.64124227322e-11)
(-88.3220000003 0 1.18319799089e-11)
(-88.3219999995 0 1.18678895816e-10)
(-88.321999999 0 1.61126654834e-10)
(-88.3220000008 0 1.58236016517e-10)
(-88.3220000008 0 -3.28695248758e-11)
(-88.3219999994 0 -1.68965139409e-11)
(-88.3219999994 0 -1.10184520346e-10)
(-88.3220000001 0 1.69523531136e-10)
(-88.3220000002 0 1.09586296888e-10)
(-88.3219999999 0 7.11056900512e-11)
(-88.322 0 -4.44674786435e-11)
(-88.322 0 -6.51121524421e-11)
(-88.322 0 1.22920392545e-11)
(-88.322 0 -1.29450528196e-11)
(-88.322 0 -2.02623600525e-12)
(-88.322 0 -8.97171517513e-12)
(-88.3219999999 0 4.4586012769e-12)
(-88.3220000001 0 1.69629340023e-11)
(-88.3220000004 0 9.27473429292e-12)
(-88.3220000001 0 -1.56622822373e-12)
(-88.322 0 -2.89847959289e-11)
(-88.3220000001 0 -3.44026904686e-12)
(-88.322 0 -2.28362910645e-11)
(-88.3219999996 0 -1.11640058974e-11)
(-88.3219999996 0 -1.46917798134e-11)
(-88.322 0 -5.51775944585e-12)
(-88.3220000002 0 -1.50827661832e-12)
(-88.3220000004 0 4.48441087693e-12)
(-88.3219999996 0 -1.51287378013e-11)
(-88.3219999993 0 3.70409703229e-11)
(-88.3219999997 0 3.42170997475e-11)
(-88.3220000006 0 -9.64790419772e-11)
(-88.3220000007 0 -1.09455869079e-10)
(-88.3219999996 0 1.51214841777e-10)
(-88.3219999998 0 1.65995151718e-10)
(-88.322 0 8.2230853755e-11)
(-88.322 0 -7.01672715165e-12)
(-88.322 0 4.80894065763e-11)
(-88.322 0 -1.88025460292e-11)
(-88.322 0 7.73518873909e-11)
(-88.322 0 1.67991137686e-10)
(-88.322 0 1.41096427054e-10)
(-88.322 0 2.74651121737e-12)
(-88.322 0 1.7815058912e-10)
(-88.3219999999 0 2.35089286689e-10)
(-88.3219999999 0 2.8003096821e-10)
(-88.3219999999 0 -1.90819615572e-10)
(-88.3220000002 0 -2.48210393795e-10)
(-88.3220000002 0 2.38879997228e-10)
(-88.3219999999 0 2.38895151228e-10)
(-88.322 0 -9.6935516115e-11)
(-88.322 0 -2.5708862013e-11)
(-88.322 0 2.10326729723e-10)
(-88.322 0 2.03793786654e-10)
(-88.322 0 -2.08544409602e-10)
(-88.3220000001 0 1.16078149329e-10)
(-88.3219999999 0 -5.1498703595e-11)
(-88.3219999998 0 2.5633565622e-10)
(-88.3219999999 0 -2.56039574445e-10)
(-88.3220000004 0 1.60561210029e-11)
(-88.3220000005 0 -1.05652363125e-11)
(-88.3219999996 0 -6.79474804011e-11)
(-88.3219999997 0 2.27338926505e-11)
(-88.3220000001 0 2.60512023495e-10)
(-88.322 0 2.25720491364e-10)
(-88.3219999999 0 1.11120982021e-11)
(-88.3219999998 0 -1.2925861128e-10)
(-88.3220000003 0 -3.00573471286e-10)
(-88.3220000002 0 2.31281683274e-10)
(-88.3219999999 0 1.38192495183e-10)
(-88.322 0 -4.03809345695e-11)
(-88.322 0 -1.39384661246e-10)
(-88.322 0 3.32492824186e-11)
(-88.322 0 -5.04612875999e-11)
(-88.322 0 2.2397417603e-12)
(-88.322 0 1.57439087094e-11)
(-88.322 0 -6.80495797812e-12)
(-88.322 0 2.94986383773e-11)
(-88.322 0 -6.20245517402e-12)
(-88.322 0 3.23299650405e-11)
(-88.322 0 -2.55442674621e-11)
(-88.322 0 -3.46864103254e-11)
(-88.322 0 -3.78739851778e-11)
(-88.322 0 9.78976262057e-12)
(-88.322 0 9.89779777681e-11)
(-88.322 0 4.7258394157e-11)
(-88.322 0 -4.06763850618e-11)
(-88.322 0 -5.19316676264e-11)
(-88.322 0 -4.18646950176e-12)
(-88.322 0 -1.09926097836e-11)
(-88.322 0 -2.31877356098e-11)
(-88.322 0 7.8495163103e-11)
(-88.322 0 1.6224057667e-10)
(-88.322 0 -1.06594006518e-10)
(-88.322 0 -1.7895203849e-10)
(-88.322 0 -2.54782586618e-10)
(-88.322 0 1.21912949083e-10)
(-88.322 0 7.02242620356e-11)
(-88.322 0 -6.07891195725e-11)
(-88.322 0 -5.46787701368e-11)
(-88.322 0 -6.07041501873e-11)
(-88.322 0 -3.70618509445e-11)
(-88.322 0 -2.824013468e-11)
(-88.322 0 -8.37134230546e-12)
(-88.322 0 1.5821895587e-11)
(-88.322 0 3.65608882198e-11)
(-88.322 0 -5.95071609085e-11)
(-88.322 0 8.33453966178e-11)
(-88.322 0 -1.20647822603e-10)
(-88.322 0 -1.37906906412e-10)
(-88.322 0 -1.51727986981e-10)
(-88.322 0 5.18696900723e-11)
(-88.322 0 -1.41785070915e-10)
(-88.322 0 -2.05620053658e-10)
(-88.322 0 1.60805359456e-10)
(-88.322 0 1.11322576138e-10)
(-88.322 0 -9.39034248768e-11)
(-88.322 0 -5.56974495774e-12)
(-88.322 0 -1.67626608384e-10)
(-88.322 0 -1.70377699582e-10)
(-88.322 0 -6.13175455228e-11)
(-88.322 0 -1.87653064272e-10)
(-88.322 0 -1.00907344758e-10)
(-88.322 0 -1.30045964748e-10)
(-88.322 0 9.73611202237e-11)
(-88.3220000001 0 1.61279892683e-10)
(-88.3219999996 0 -1.25778735765e-10)
(-88.3219999996 0 1.59061580365e-11)
(-88.3220000008 0 -9.62068602376e-11)
(-88.3220000002 0 1.03699875111e-10)
(-88.3219999996 0 -1.21171973441e-10)
(-88.3220000001 0 -3.46751371327e-10)
(-88.322 0 -1.52703939764e-10)
(-88.322 0 -3.51927235741e-11)
(-88.322 0 2.51557879714e-11)
(-88.322 0 2.49523635189e-12)
(-88.322 0 -2.8824046288e-13)
(-88.322 0 2.97549034825e-13)
(-88.322 0 4.10873801053e-11)
(-88.322 0 -5.46698327113e-11)
(-88.322 0 -1.55874331457e-11)
(-88.322 0 -5.0749476198e-12)
(-88.322 0 -8.49565441011e-12)
(-88.322 0 -2.44855403424e-12)
(-88.322 0 9.02077094508e-12)
(-88.3220000001 0 -7.79054213688e-12)
(-88.3220000003 0 2.53402793806e-11)
(-88.3219999999 0 -5.89519137429e-11)
(-88.3219999999 0 1.88247220003e-10)
(-88.3220000004 0 -2.48654962375e-10)
(-88.3220000002 0 -3.07146670643e-10)
(-88.3219999995 0 -1.3094291725e-11)
(-88.3219999996 0 -7.44065571067e-12)
(-88.322 0 -1.21106118608e-11)
(-88.322 0 -2.2687216449e-12)
(-88.322 0 -5.91040160533e-12)
(-88.322 0 3.67817338912e-12)
(-88.322 0 -3.10620874111e-12)
(-88.322 0 -6.43530021628e-12)
(-88.322 0 -1.57023348094e-11)
(-88.322 0 -2.15207037882e-12)
(-88.322 0 7.22456362463e-12)
(-88.322 0 -8.44302208919e-13)
(-88.322 0 -2.97037489181e-12)
(-88.322 0 -9.99275226006e-12)
(-88.322 0 -5.92598759534e-12)
(-88.322 0 -2.18567653065e-11)
(-88.322 0 -1.23485282472e-12)
(-88.322 0 -3.92629268465e-14)
(-88.3220000001 0 9.64855218294e-13)
(-88.3219999999 0 -7.94315180748e-14)
(-88.3220000001 0 -1.28015533328e-12)
(-88.3220000003 0 -7.57012158671e-13)
(-88.3219999999 0 -6.91073675506e-13)
(-88.3219999995 0 -2.26490829444e-11)
(-88.3220000002 0 -3.17839259175e-12)
(-88.3220000007 0 -6.3038494062e-13)
(-88.3219999993 0 -3.02030612164e-12)
(-88.3219999994 0 -1.29629507237e-13)
(-88.3220000005 0 2.17038719394e-12)
(-88.3220000003 0 2.30911672279e-13)
(-88.3220000001 0 6.55006591263e-13)
(-88.3220000003 0 5.43327681404e-13)
(-88.3219999999 0 -2.71732078397e-12)
(-88.3219999999 0 -5.06712493782e-13)
(-88.3219999999 0 -1.37585070176e-12)
(-88.3219999998 0 -7.74844008158e-13)
(-88.322 0 1.02781559469e-12)