/*--------------------------------*- C++ -*----------------------------------*\
  =========                 |
  \\      /  F ield         | OpenFOAM: The Open Source CFD Toolbox
   \\    /   O peration     | Website:  https://openfoam.org
    \\  /    A nd           | Version:  6
     \\/     M anipulation  |
\*---------------------------------------------------------------------------*/
FoamFile
{
    version     2.0;
    format      ascii;
    class       volScalarField;
    location    "3.3e-05";
    object      p;
}
// * * * * * * * * * * * * * * * * * * * * * * * * * * * * * * * * * * * * * //

dimensions      [1 -1 -2 0 0 0 0];

internalField   nonuniform List<scalar> 
8192
(
6000000.00183
5999999.99964
6000000.00057
6000000.00042
6000000.00131
5999999.99913
5999999.99997
5999999.99997
6000000.00001
6000000.00001
6000000.00001
6000000.00004
6000000.00042
6000000.00018
6000000.00013
6000000.00006
6000000.00008
5999999.99987
5999999.99973
6000000.00011
6000000.00001
5999999.99975
6000000.00003
5999999.99999
5999999.99986
5999999.99998
5999999.99951
5999999.99957
5999999.99907
6000000.00021
5999999.99929
5999999.9996
5999999.9991
5999999.99769
6000000.0036
6000000.00457
5999999.99967
6000000.00492
5999999.99779
5999999.9992
6000000.0001
5999999.99989
6000000.00002
6000000.00003
6000000.0002
6000000.00011
6000000.00001
6000000.00003
5999999.99991
6000000
6000000.00001
5999999.99947
6000000.00129
5999999.99808
5999999.99878
6000000.00251
6000000.00098
6000000.00136
6000000.00001
6000000.00213
5999999.99785
5999999.9972
5999999.99764
5999999.99911
6000000.00004
6000000.00021
6000000
6000000.00067
5999999.99963
6000000.00023
5999999.99995
5999999.99988
6000000.00105
6000000.00355
6000000.00394
5999999.9968
5999999.99366
6000000.00434
6000000.00393
5999999.99695
5999999.99886
5999999.99632
6000000.00292
6000000.00302
5999999.99833
5999999.99831
6000000.00345
6000000.0041
5999999.99882
5999999.9991
5999999.99914
5999999.9995
5999999.99915
6000000.00056
5999999.99971
6000000.00008
6000000.00016
5999999.99998
6000000.00065
5999999.99984
6000000.00002
5999999.99998
5999999.99995
6000000.00001
5999999.9998
6000000.00011
6000000.00007
6000000.00001
5999999.99998
5999999.99998
6000000.00002
6000000.00001
5999999.99998
6000000.00017
6000000.00001
6000000.00022
6000000.00007
5999999.9998
5999999.99999
6000000.00001
5999999.99968
5999999.99961
6000000.00002
5999999.9999
6000000.00015
6000000.00003
6000000.00015
6000000.00015
6000000.00373
6000000.00016
6000000
6000000.00036
6000000.00029
5999999.9999
6000000.00002
5999999.99997
6000000.00007
6000000.00015
5999999.99998
6000000.00081
6000000.00048
6000000.00128
6000000.00211
5999999.99828
5999999.99977
5999999.99838
6000000.00188
6000000.00158
5999999.99994
5999999.9982
5999999.99896
6000000.00074
5999999.99669
6000000.00295
5999999.99683
5999999.99765
5999999.99943
5999999.99954
5999999.999
5999999.99971
6000000.00001
5999999.99992
6000000.00041
6000000.0005
5999999.99983
6000000.00147
6000000.00004
6000000.00008
5999999.99978
5999999.99993
5999999.99981
6000000.00054
6000000.00395
6000000.00212
6000000.00186
6000000.00139
6000000.00251
6000000.00114
5999999.99745
6000000.00016
6000000.00111
5999999.99859
6000000.00112
5999999.99839
6000000.00131
6000000.0022
6000000.00288
5999999.996
5999999.99568
6000000.00298
6000000.00393
6000000.00161
5999999.9999
5999999.99998
6000000.00013
6000000.00004
5999999.99993
6000000.00001
5999999.99999
6000000.00001
6000000.00015
6000000.00001
6000000.00002
5999999.99983
5999999.99958
6000000.00022
6000000.00001
6000000.00001
6000000.00002
5999999.99998
6000000.00004
6000000.00007
6000000
5999999.99979
5999999.99998
6000000.00003
5999999.9999
6000000
5999999.99992
5999999.99986
5999999.99888
6000000.00072
5999999.99878
6000000.00025
6000000.00374
5999999.99693
5999999.99776
6000000.00175
6000000.00438
5999999.99466
5999999.99705
6000000.00273
6000000.00243
5999999.99874
6000000.00194
6000000.00029
6000000.00229
5999999.99921
6000000.00294
6000000.00451
5999999.99617
6000000.00036
6000000.002
5999999.9991
6000000.00392
5999999.99644
6000000.00045
6000000.00261
6000000.00177
6000000.00203
6000000.00114
6000000.00085
6000000.00131
5999999.99922
5999999.99977
5999999.9999
5999999.99913
5999999.9992
5999999.99994
5999999.99966
6000000.00068
5999999.99989
6000000.00002
5999999.99978
6000000.00002
5999999.99993
6000000.00007
6000000.00015
6000000.00017
5999999.99993
6000000.00003
6000000.00007
6000000
6000000.00017
5999999.99931
5999999.99786
6000000.00329
6000000.00241
5999999.99619
5999999.99771
5999999.99821
5999999.99787
5999999.99906
5999999.99751
6000000.00045
6000000.00066
5999999.99939
6000000.00031
5999999.99991
6000000.00016
6000000.00001
5999999.99996
6000000.00012
5999999.99991
6000000.00001
5999999.99983
6000000.00001
6000000.00011
6000000.00001
6000000.00001
6000000.00002
6000000.00001
5999999.99986
6000000.00028
5999999.99923
5999999.99905
6000000.00008
5999999.99864
6000000.00211
5999999.99642
5999999.997
6000000.00243
6000000.00178
5999999.99945
6000000.0023
5999999.99897
6000000.0026
5999999.99632
5999999.99838
5999999.9978
6000000.00334
6000000.00016
5999999.99943
6000000.00017
6000000.00002
6000000.00022
6000000.00003
5999999.99982
6000000.00003
6000000.00001
5999999.99991
6000000.00044
6000000.00034
6000000.00014
6000000.00013
6000000
5999999.99974
5999999.99932
5999999.99991
6000000.00005
5999999.99994
5999999.99988
5999999.99966
6000000.00074
5999999.99929
6000000.0004
5999999.99849
5999999.99736
5999999.99698
6000000.00122
5999999.99691
5999999.99789
6000000.00369
6000000.00046
6000000.00235
6000000.00133
5999999.99823
6000000.00206
5999999.99937
6000000.00102
6000000.00029
6000000.00003
6000000.00022
6000000.00001
6000000.0002
6000000.00005
6000000.00012
6000000.00039
5999999.9999
6000000.00061
6000000.00061
5999999.99937
6000000.00099
5999999.99892
6000000.00024
6000000.00317
6000000.00112
6000000.00037
6000000.00374
5999999.99553
5999999.99743
5999999.99669
5999999.99924
5999999.99949
5999999.99957
6000000.0009
5999999.99758
5999999.99594
6000000.0021
5999999.99553
5999999.99769
6000000.00283
6000000.00036
5999999.99916
6000000.00043
5999999.99937
5999999.99905
6000000.00274
5999999.99635
5999999.99721
5999999.99728
5999999.99941
6000000.00283
6000000.00033
5999999.99689
5999999.99574
6000000.00092
6000000.00139
6000000.00098
5999999.9987
5999999.99846
6000000.00067
5999999.99707
5999999.99775
5999999.99898
6000000.00332
5999999.99952
5999999.99963
5999999.99902
6000000.00011
6000000.00028
5999999.99997
6000000.00004
5999999.9998
5999999.9999
6000000.0002
5999999.99998
5999999.99998
6000000.00001
6000000.00002
6000000.00022
5999999.99922
5999999.99999
5999999.99998
5999999.99998
5999999.99972
6000000.00003
6000000.00001
5999999.99983
6000000.00008
6000000.00014
5999999.9999
5999999.99995
6000000.00004
6000000.00007
5999999.9994
5999999.99921
5999999.99983
5999999.99955
6000000.00012
6000000.00018
6000000.00001
6000000
6000000.00001
6000000.00037
5999999.9994
6000000.00107
6000000.0015
5999999.99519
6000000.00376
6000000.00317
6000000.00039
6000000.001
6000000.00043
6000000.00023
6000000.00001
6000000
6000000.00006
6000000.00001
6000000
5999999.99983
5999999.99989
5999999.99985
5999999.99994
6000000.00004
5999999.99955
6000000.00013
5999999.99989
5999999.99993
6000000.00066
5999999.99784
5999999.99901
6000000.00328
6000000.00357
6000000.00028
5999999.99809
6000000.00018
6000000.00235
5999999.99984
5999999.99976
6000000.00075
5999999.99994
6000000.00002
6000000.00001
6000000.00012
6000000.0004
5999999.9998
6000000.00062
5999999.99991
5999999.99991
6000000.00022
6000000.00001
6000000.00021
6000000.00085
6000000.00105
6000000.00046
6000000.00046
5999999.99949
5999999.99971
5999999.99547
5999999.99745
6000000.00087
5999999.9995
5999999.99938
5999999.99979
5999999.99969
6000000.00002
5999999.99993
6000000.00005
5999999.99978
6000000.00001
6000000.00001
6000000.00001
6000000.00006
5999999.99977
6000000.00015
6000000.00001
5999999.99991
5999999.99989
5999999.9999
6000000.00002
6000000.00005
5999999.99993
5999999.99989
5999999.99983
6000000.00001
5999999.99988
5999999.99993
5999999.99988
5999999.99993
6000000.00001
6000000.00001
5999999.99988
5999999.99998
6000000
6000000
5999999.99979
6000000.00035
5999999.99948
6000000.00001
5999999.9999
6000000.00001
6000000.00001
5999999.99998
6000000.00001
6000000.00004
6000000.0002
6000000.00011
6000000.00001
6000000.00001
5999999.99991
5999999.99976
6000000.00044
5999999.9997
5999999.99981
5999999.99759
5999999.99626
6000000.00232
6000000.00197
5999999.99985
6000000.00375
5999999.99862
6000000.00303
5999999.99628
6000000.00018
5999999.99897
6000000.00099
6000000.00068
6000000.00068
6000000
6000000.00053
5999999.99975
6000000.00006
6000000.00001
6000000.00003
6000000.00015
6000000.00001
5999999.99999
6000000.00007
6000000.0002
6000000.00003
6000000
6000000.00001
5999999.99993
5999999.99994
6000000.00002
5999999.99998
5999999.99979
5999999.99974
5999999.99978
5999999.99987
5999999.99994
5999999.99988
5999999.99984
6000000.00002
6000000.00046
5999999.99944
6000000.00049
5999999.99938
5999999.99739
6000000.0033
6000000.00286
6000000.00084
6000000.00403
5999999.99858
5999999.99988
6000000.00006
6000000.00004
6000000.00003
6000000.00002
6000000.00022
6000000.0001
6000000.00045
6000000.00001
5999999.99986
6000000.00005
6000000
5999999.99961
6000000.00121
5999999.99872
5999999.99923
6000000.00313
6000000.00193
6000000.00196
6000000.00058
5999999.99902
5999999.9986
6000000.00392
6000000.0024
6000000.00199
5999999.99891
5999999.99816
6000000.00084
5999999.9997
5999999.9998
5999999.99974
6000000.0003
6000000.00017
6000000.00015
6000000.00016
5999999.99988
6000000.00015
5999999.99991
6000000.00013
6000000.00026
6000000.00006
6000000.00002
5999999.99996
5999999.99934
6000000.00119
6000000.00047
5999999.99732
5999999.99728
6000000.0036
6000000.00236
6000000.00074
5999999.9996
6000000.00099
5999999.99948
6000000.00071
6000000.00374
6000000.00222
5999999.99867
6000000.00262
6000000.00226
6000000.00298
5999999.99541
5999999.99816
6000000.00233
6000000.00137
5999999.99574
5999999.99904
6000000.00123
6000000.00379
5999999.99794
6000000.00255
5999999.99969
6000000.00419
5999999.99585
6000000.00055
6000000.00029
5999999.99835
6000000.00228
6000000.00183
6000000.00184
6000000.00524
5999999.99559
5999999.99773
6000000.00361
6000000.0027
5999999.9981
5999999.99601
6000000.00119
5999999.99884
6000000.00003
6000000.00001
5999999.99964
6000000.00126
5999999.9995
6000000.00129
5999999.99918
5999999.9989
6000000.00112
6000000.00283
6000000.0006
6000000.00261
6000000.00295
6000000.00181
5999999.99899
5999999.99973
5999999.99937
6000000.00184
6000000.0048
5999999.99801
5999999.99814
5999999.99496
6000000.003
6000000.00172
5999999.99743
5999999.9981
5999999.99806
5999999.99882
5999999.99873
5999999.99935
5999999.9997
6000000.00015
5999999.99998
5999999.99985
6000000.00034
5999999.99841
5999999.99826
5999999.99854
6000000.00175
5999999.99981
6000000.00001
6000000.00015
5999999.99958
6000000.00029
6000000.0001
6000000.00073
6000000.00227
5999999.99824
5999999.99809
5999999.99731
6000000.00331
6000000.00329
5999999.99684
5999999.99918
5999999.99855
6000000.00043
5999999.9972
5999999.99781
6000000.00218
6000000.00081
6000000.0009
6000000.0006
5999999.99998
6000000.00015
6000000.00004
6000000.00004
6000000.00001
5999999.99998
5999999.99993
5999999.99993
6000000.00015
6000000.00001
5999999.99999
6000000.00013
6000000.00077
6000000.00022
6000000.00013
6000000.00024
5999999.99991
6000000.00037
6000000.00013
5999999.99983
5999999.99994
6000000.0001
6000000.00017
5999999.99974
5999999.99913
6000000.00073
5999999.99935
6000000.00001
5999999.99988
5999999.99993
5999999.99989
6000000.00001
5999999.99988
6000000.00002
5999999.99992
5999999.99966
6000000.00059
6000000.00007
5999999.99964
5999999.99979
5999999.99847
5999999.99982
6000000.00004
6000000.00004
6000000.00001
5999999.99998
6000000.00023
6000000.00012
5999999.99998
6000000.00007
5999999.99991
6000000.00004
5999999.99929
6000000.0015
6000000.00179
5999999.99749
5999999.9981
6000000.00315
5999999.99893
6000000.00051
6000000.00028
6000000.00006
5999999.99999
5999999.99982
6000000.00002
5999999.99988
6000000.00001
5999999.99964
6000000.00015
6000000
6000000
5999999.99997
6000000.00016
5999999.99932
6000000.00219
6000000.00388
5999999.99903
6000000.00174
6000000.00306
6000000.00366
5999999.99835
5999999.99924
6000000.00047
5999999.99999
6000000.00001
6000000.00007
5999999.99994
5999999.99993
5999999.99998
6000000.00001
5999999.99991
5999999.99994
5999999.99991
5999999.99998
5999999.99994
6000000.00013
5999999.99958
5999999.9989
6000000.00142
5999999.99757
6000000.00265
6000000.00144
6000000.00137
5999999.99852
6000000.00235
6000000.00277
5999999.99816
5999999.99786
6000000.00294
6000000.00002
6000000.00368
6000000.00382
6000000.00174
6000000.00321
6000000
6000000.00015
6000000.00125
6000000.00024
6000000.00096
5999999.9995
6000000.00216
5999999.99719
6000000.0006
6000000.0028
6000000.003
6000000.00028
5999999.99938
5999999.99995
6000000.00001
6000000.00001
5999999.99946
6000000.00249
6000000.00055
5999999.99997
6000000.00031
6000000.00007
5999999.99999
6000000.00051
5999999.9993
6000000.00142
5999999.99512
6000000.00352
6000000.00298
5999999.99955
6000000.0003
6000000.00037
6000000.00017
6000000.00008
6000000
6000000.00001
6000000
6000000
5999999.99989
6000000.00001
5999999.99988
6000000
6000000.00001
5999999.99989
6000000.00015
5999999.99997
5999999.99988
6000000.00001
5999999.99997
5999999.9999
6000000.00005
6000000.00002
6000000.00009
5999999.99964
5999999.99867
5999999.99955
6000000.00006
5999999.99992
6000000.00004
6000000.00001
6000000.00022
6000000.00011
6000000.00001
6000000.00003
5999999.99989
5999999.99973
6000000.00038
5999999.99816
6000000.00282
5999999.99679
5999999.99783
6000000.00317
6000000.00208
6000000.00262
6000000.00083
5999999.99977
5999999.99763
5999999.99748
5999999.99863
5999999.99966
5999999.99642
6000000.00084
6000000.00012
5999999.99955
6000000.00001
5999999.99922
6000000.00056
5999999.99877
6000000.0019
5999999.99727
5999999.99632
6000000.0024
5999999.99812
5999999.99767
5999999.9991
6000000.00018
6000000.00055
6000000.00013
6000000.00001
6000000.00017
5999999.99997
6000000.00057
5999999.99927
6000000.00025
6000000.00002
6000000.00016
5999999.99891
5999999.9994
5999999.9996
5999999.99909
5999999.9997
5999999.99993
6000000.00004
6000000.00011
6000000.00024
5999999.99994
5999999.99995
6000000.00017
6000000.00001
6000000.00001
5999999.99998
6000000.00001
6000000.00001
6000000.00011
6000000.00001
6000000.00001
6000000.00007
6000000.00009
5999999.99973
6000000.00001
5999999.99998
6000000.00001
6000000.00001
5999999.99999
5999999.99976
6000000.0004
6000000.00137
5999999.99806
6000000.00268
5999999.99715
5999999.99662
6000000.00227
6000000.00218
5999999.99701
5999999.99987
5999999.99989
5999999.99997
6000000.00017
5999999.99986
6000000.00064
5999999.99955
5999999.9998
6000000.00001
5999999.99991
6000000.00041
5999999.99945
6000000.0007
6000000.00203
5999999.99777
5999999.99797
5999999.99863
5999999.99997
6000000.00235
6000000.00202
5999999.99601
5999999.99582
6000000.00346
6000000.00238
5999999.99663
5999999.99797
6000000.00136
6000000.00192
5999999.99763
5999999.99942
6000000.0006
6000000.00004
6000000.00004
6000000.00001
6000000.00001
6000000.00002
6000000.00014
5999999.99988
5999999.99991
6000000.00001
6000000.00001
6000000.0002
6000000.00003
6000000.00001
5999999.99986
5999999.99971
6000000.00014
6000000.00001
6000000.00002
6000000.00001
6000000.00001
5999999.99982
6000000.00001
6000000.00001
5999999.99995
5999999.99986
6000000.00005
6000000.00046
5999999.99953
6000000.00001
6000000.00044
5999999.99827
6000000.00136
6000000.00062
6000000.00046
6000000.00032
6000000.00049
6000000.00013
6000000.0001
5999999.99953
6000000.0006
5999999.99958
6000000.00061
6000000.00328
6000000.0026
5999999.9979
5999999.99795
6000000.00258
6000000.00207
6000000.00143
6000000.00081
5999999.99834
5999999.99929
6000000.00006
6000000.00003
5999999.99988
5999999.99933
6000000.00009
5999999.99904
5999999.99978
5999999.99923
5999999.9998
6000000.00079
6000000.00019
5999999.99974
5999999.99976
6000000.00001
5999999.99988
6000000.00006
6000000.00005
6000000.00001
5999999.99994
6000000.00004
6000000.00016
5999999.99973
5999999.99996
6000000.00002
6000000.00001
6000000.00007
6000000.00002
6000000.00007
6000000.00005
5999999.99995
6000000.00012
6000000.00073
5999999.99878
6000000.00204
5999999.99722
5999999.99967
6000000.00345
6000000.00332
6000000.00253
6000000.00167
6000000.00046
5999999.99818
5999999.99851
5999999.99946
5999999.99949
6000000.0002
6000000.0046
5999999.99629
5999999.99869
5999999.9956
6000000.00239
6000000.00116
6000000.00122
6000000.00047
6000000.00044
6000000.0003
6000000.00023
6000000.00043
5999999.99977
6000000.00002
6000000.00001
6000000
6000000.00003
5999999.99984
6000000.00061
5999999.9991
6000000.00135
5999999.9988
5999999.99845
5999999.99922
6000000.001
5999999.99737
5999999.99771
6000000.0017
5999999.99769
5999999.99637
6000000.00313
6000000.0029
5999999.9977
6000000.00127
6000000
5999999.99993
6000000.00069
6000000.0001
6000000.00003
6000000.00001
6000000.00001
6000000.00002
6000000.00001
6000000.00002
6000000.00001
6000000.00007
6000000.00017
6000000.00022
6000000.00003
6000000.00001
6000000.00001
6000000.00003
6000000.00073
5999999.99885
6000000.00185
6000000.00209
6000000.00007
6000000.00107
6000000.00011
6000000.00143
5999999.99968
6000000.00019
5999999.99871
6000000.00013
5999999.99951
6000000.00125
6000000.00033
5999999.99998
5999999.99987
5999999.99997
5999999.99992
6000000
5999999.99994
6000000.00017
6000000.00037
5999999.99991
6000000
5999999.99997
6000000.00011
6000000
6000000
5999999.99998
5999999.99993
6000000.0003
6000000.00045
5999999.99884
6000000.00074
5999999.99984
6000000.00069
6000000.00009
5999999.99997
5999999.99998
6000000
6000000.00036
5999999.99875
5999999.99999
5999999.99996
5999999.99994
6000000.00001
5999999.99993
6000000
5999999.99994
6000000.00006
5999999.99988
5999999.99996
6000000.00008
5999999.99994
5999999.99993
6000000
6000000.00008
5999999.99994
6000000
6000000
5999999.99994
5999999.99997
6000000.00001
5999999.99993
6000000.00021
6000000.00001
6000000.00013
6000000.00004
6000000.0002
5999999.99942
6000000.00102
5999999.99826
6000000.00034
6000000.00039
6000000.0009
6000000.00175
5999999.99851
5999999.99982
5999999.99957
5999999.99999
5999999.99991
5999999.99989
6000000.00014
5999999.99956
6000000.00001
6000000.00003
6000000
6000000.00058
6000000.00053
6000000.00087
5999999.99942
5999999.9993
6000000.00105
5999999.99797
6000000.00085
5999999.99856
6000000.00286
6000000.00403
5999999.9967
5999999.99946
5999999.99761
6000000.00195
6000000.00026
6000000.00294
5999999.99755
5999999.99602
6000000.00199
5999999.99723
5999999.99779
5999999.99861
5999999.99841
6000000.00006
5999999.99822
5999999.99842
5999999.99525
6000000.00121
5999999.99651
5999999.9969
5999999.99809
5999999.99757
5999999.99929
5999999.99693
6000000.00173
6000000.00061
5999999.99983
5999999.99964
6000000
5999999.99993
5999999.99996
6000000.00015
5999999.99989
6000000.00007
5999999.99879
6000000.00118
5999999.99726
5999999.9946
6000000.00279
5999999.99701
5999999.99677
6000000.00279
5999999.99668
5999999.99693
6000000.00044
6000000.00001
6000000.00002
6000000.00017
6000000.00003
6000000.00001
6000000.00001
6000000.00004
5999999.99983
6000000.00014
6000000.00002
6000000.00001
6000000.00001
5999999.99993
5999999.99994
6000000.00004
6000000.00023
5999999.99982
5999999.99888
6000000.00041
5999999.99963
5999999.99994
5999999.99988
5999999.9998
5999999.99978
6000000.00036
5999999.99975
5999999.99956
6000000.00003
5999999.99966
6000000.00012
6000000.00006
5999999.99981
6000000.00007
5999999.99997
6000000.00115
5999999.9987
5999999.99891
6000000.00027
6000000.00001
6000000.00007
6000000.00006
5999999.99974
6000000.00024
6000000.00022
6000000.00009
5999999.99988
5999999.99999
5999999.99975
6000000.00017
6000000.00004
6000000.0004
5999999.99993
6000000.0002
6000000.00135
6000000.00212
5999999.99615
5999999.99501
6000000.00317
6000000.00038
6000000.00046
6000000.00019
6000000.00011
6000000.00043
6000000.00002
6000000.00017
5999999.99997
5999999.99992
6000000
6000000.00002
5999999.99999
5999999.99998
5999999.99999
6000000
6000000.00002
6000000.00011
6000000
6000000
6000000.00001
6000000
6000000.00011
6000000.00001
6000000.00001
5999999.99994
5999999.99996
6000000.00011
6000000
6000000
6000000.00011
6000000
6000000
5999999.99993
6000000.00001
5999999.99994
6000000.00001
6000000.00007
5999999.99971
5999999.99989
5999999.99994
6000000.00001
6000000.0002
5999999.99999
6000000
5999999.99994
6000000.00004
6000000
6000000.00008
5999999.99994
6000000
6000000
5999999.99994
5999999.99998
6000000.00001
5999999.99993
6000000.00021
6000000.00006
5999999.99991
6000000.00029
5999999.9995
6000000.00066
6000000.00233
5999999.99775
5999999.99943
6000000.00221
6000000.00003
6000000.00002
6000000.00003
5999999.99988
6000000.00004
6000000.00004
6000000.00015
6000000.00004
6000000.00003
6000000.00002
5999999.99988
6000000.00015
6000000.00015
6000000.00015
6000000.00001
5999999.99989
6000000.00001
5999999.99993
6000000.00001
6000000.00002
6000000
5999999.99987
5999999.99963
6000000.00065
5999999.99993
6000000.00047
5999999.9994
5999999.99975
5999999.99989
5999999.99991
5999999.99939
6000000.00062
5999999.99908
5999999.99766
6000000.00168
5999999.99731
5999999.99549
6000000.00277
5999999.99827
6000000
5999999.99871
6000000.00075
6000000.00059
5999999.99957
6000000.00038
5999999.99988
5999999.9999
6000000.00017
6000000.0002
6000000.00005
5999999.99989
6000000.00001
6000000.00005
5999999.99993
6000000.00004
6000000.00015
5999999.99999
6000000.00021
5999999.99989
5999999.99987
6000000.00006
5999999.99946
5999999.99996
5999999.99949
6000000.00003
5999999.99998
5999999.99998
5999999.9999
6000000.00029
5999999.99997
5999999.99995
5999999.99996
5999999.99998
5999999.99999
5999999.9999
5999999.99994
6000000.00012
5999999.99998
5999999.99999
6000000.00006
5999999.99998
5999999.99998
6000000.00002
5999999.99998
6000000.00006
5999999.99994
6000000.00001
5999999.99978
5999999.99984
6000000.00006
5999999.99998
5999999.99998
5999999.99998
5999999.99998
5999999.99994
5999999.99998
6000000
5999999.99994
5999999.9999
6000000.00013
5999999.99986
5999999.99989
5999999.99998
6000000.00001
6000000.00025
5999999.99989
5999999.99998
5999999.99998
6000000.00002
5999999.99994
5999999.99998
5999999.9999
5999999.99994
5999999.99998
5999999.99998
5999999.99989
6000000.00001
5999999.99995
6000000.00026
6000000
6000000.00003
6000000.00002
5999999.99994
5999999.99998
6000000.00009
6000000.00016
5999999.9987
6000000.00087
6000000.00009
6000000.0001
6000000.00005
6000000.0001
6000000.00007
5999999.99977
6000000.00065
6000000.00427
6000000.0018
5999999.99952
6000000.00332
6000000.0013
5999999.99766
6000000.00197
6000000.00042
6000000.00086
5999999.99881
5999999.99928
5999999.99998
5999999.99993
5999999.99999
5999999.99965
6000000.00063
6000000.00009
5999999.99993
6000000
5999999.99982
6000000.00043
5999999.99938
6000000.00146
5999999.9982
6000000.00201
6000000.00303
5999999.99797
6000000.00333
5999999.99643
5999999.99694
6000000.00264
5999999.99973
6000000.00437
5999999.99667
5999999.99986
6000000.0007
5999999.99929
5999999.99988
5999999.99993
5999999.99996
6000000.00013
5999999.99987
6000000.0001
5999999.99995
5999999.99997
5999999.99994
5999999.99986
6000000.00008
6000000
5999999.99998
6000000.0002
5999999.99987
5999999.99991
5999999.99986
5999999.99938
5999999.99991
5999999.99979
5999999.99971
5999999.99976
6000000.00131
5999999.99896
5999999.99987
6000000.00236
6000000.00163
5999999.99645
6000000.00063
6000000.0001
6000000.00174
6000000.00221
5999999.99634
5999999.99937
5999999.99934
6000000.00307
6000000.00321
5999999.99729
5999999.99891
5999999.99718
6000000.00089
5999999.9965
5999999.99671
5999999.99904
5999999.99685
6000000.00074
5999999.99871
5999999.99877
5999999.99875
6000000.00068
5999999.99712
5999999.99819
6000000.00216
6000000.00106
5999999.9972
5999999.99803
5999999.9979
5999999.99795
5999999.99868
5999999.99742
5999999.9996
5999999.9974
5999999.99503
6000000.00266
5999999.99881
5999999.99863
5999999.99841
5999999.9963
5999999.99676
6000000.00228
5999999.99737
5999999.99618
5999999.99947
5999999.997
6000000.00056
6000000.00169
5999999.99591
5999999.99736
5999999.99683
6000000.00071
6000000.00168
5999999.99737
6000000.00519
6000000.00224
5999999.99896
6000000.00359
5999999.99573
5999999.99675
6000000.00129
5999999.99965
5999999.99991
5999999.99728
5999999.99797
6000000.00232
5999999.99778
5999999.99926
6000000.00177
5999999.99987
6000000.00147
6000000.0032
6000000.00138
6000000.00018
5999999.99763
5999999.99828
6000000.00294
6000000.00099
5999999.99568
5999999.99779
6000000.0003
6000000.00317
6000000.00056
5999999.99976
6000000.00064
6000000.00048
6000000.00012
5999999.99813
6000000.00099
6000000.00107
5999999.9993
6000000.00151
5999999.99811
5999999.99991
5999999.99884
6000000.00065
6000000.00087
5999999.99665
5999999.99992
6000000.00051
5999999.99775
5999999.99839
6000000.00059
5999999.99973
5999999.9992
6000000.00056
5999999.99963
5999999.99863
5999999.9981
5999999.99923
5999999.99791
6000000.00023
5999999.99863
6000000.00377
5999999.99962
5999999.9996
6000000.00442
5999999.99695
6000000.00111
6000000.00111
6000000.00605
5999999.99946
6000000.0016
6000000.00729
6000000.0043
5999999.99862
5999999.99724
6000000.00821
6000000.00612
6000000.00314
6000000.00121
5999999.99749
6000000.00644
6000000.0053
6000000.00206
6000000.00284
6000000.00221
5999999.99667
6000000.00471
6000000.00478
6000000.00072
5999999.99862
6000000.00813
6000000.00177
5999999.99562
6000000.00252
6000000.00104
6000000.00925
6000000.00376
5999999.99757
6000000.0003
6000000.00756
5999999.99878
5999999.9977
6000000.00778
6000000.00684
6000000.00132
6000000.00478
6000000.00665
6000000.00302
5999999.99818
6000000.00213
6000000.0046
6000000.00575
6000000.00618
6000000.00305
6000000.00171
6000000.00409
6000000.0057
6000000.00112
6000000.00126
6000000.00447
5999999.99661
6000000.00509
6000000.00279
6000000.00851
6000000.00247
6000000.00413
6000000.00466
5999999.99628
6000000.00478
6000000.00287
5999999.99853
6000000.00523
5999999.9986
5999999.99939
5999999.99924
6000000.00015
5999999.99847
5999999.99934
5999999.99866
5999999.99964
5999999.99979
5999999.99884
5999999.99919
5999999.99867
5999999.9995
5999999.99914
6000000.00067
5999999.99813
5999999.99834
5999999.9985
6000000.00031
5999999.99939
5999999.99864
5999999.99875
6000000.0001
5999999.9986
5999999.99832
5999999.9986
5999999.9986
5999999.99931
5999999.99929
5999999.99718
5999999.99834
6000000.0003
5999999.99869
5999999.99784
5999999.99958
5999999.99795
6000000.00018
5999999.99963
5999999.99899
5999999.99705
5999999.99867
5999999.99979
5999999.99854
5999999.9998
5999999.9998
5999999.99835
5999999.99789
5999999.99969
5999999.99787
5999999.99728
5999999.99994
6000000.00001
6000000.0006
5999999.99997
5999999.99926
6000000.00006
5999999.99783
5999999.99797
5999999.99849
5999999.99877
5999999.9988
6000000.00057
6000000.00262
5999999.99826
5999999.99942
5999999.99952
5999999.99979
5999999.99972
6000000.00057
5999999.99969
5999999.99967
6000000.00037
5999999.99976
5999999.99982
5999999.99973
5999999.99979
6000000.00049
5999999.99993
5999999.99982
5999999.99969
6000000.0004
6000000.0004
5999999.99986
6000000.00028
5999999.99993
6000000.00044
5999999.99967
5999999.99963
6000000.00042
5999999.99995
6000000.00047
5999999.99977
5999999.99992
5999999.99968
6000000.00032
6000000.00047
6000000.00028
6000000.00054
5999999.99974
6000000.00044
6000000.00048
5999999.99968
6000000.00009
5999999.99976
6000000.00036
6000000
5999999.99964
6000000.0006
6000000.00017
6000000.00037
6000000.00045
5999999.99968
5999999.99968
5999999.9999
6000000.00017
6000000.00017
6000000.00043
6000000.00042
5999999.99984
5999999.99995
6000000.00022
6000000.00006
6000000.00037
6000000.00023
6000000.00013
6000000.00053
5999999.99975
6000000.00037
6000000.00052
6000000.00071
6000000.00068
6000000.00078
6000000.0005
6000000.00071
6000000.00067
6000000.00098
6000000.00065
6000000.00058
6000000.00057
6000000.00071
6000000.0006
6000000.00066
6000000.0007
6000000.00069
6000000.00048
6000000.00076
6000000.00089
6000000.00054
6000000.00073
6000000.00077
6000000.0005
6000000.00065
6000000.00055
6000000.00069
6000000.00052
6000000.00045
6000000.0007
6000000.00074
6000000.00062
6000000.00066
6000000.00071
6000000.00083
6000000.00049
6000000.00071
6000000.00046
6000000.00058
6000000.00049
6000000.0006
6000000.00073
6000000.00076
6000000.00079
6000000.00079
6000000.0007
6000000.00068
6000000.00051
6000000.00078
6000000.0008
6000000.00084
6000000.00064
6000000.00054
6000000.00056
6000000.00075
6000000.00074
6000000.00066
6000000.00081
6000000.00078
6000000.00076
6000000.00075
6000000.00058
6000000.00091
6000000.0009
6000000.00075
5999999.9992
5999999.99907
5999999.99907
5999999.99916
5999999.99915
5999999.99938
5999999.99913
5999999.99914
5999999.99904
5999999.99896
5999999.99919
5999999.99924
5999999.99948
5999999.99911
5999999.99904
5999999.99914
5999999.99907
5999999.99931
5999999.99915
5999999.99915
5999999.9991
5999999.99902
5999999.99936
5999999.99936
5999999.99913
5999999.99906
5999999.99947
5999999.99914
5999999.99924
5999999.99927
5999999.99901
5999999.99955
5999999.99934
5999999.99928
5999999.99913
5999999.99913
5999999.99931
5999999.99896
5999999.99899
5999999.99912
5999999.99924
5999999.99921
5999999.99914
5999999.99915
5999999.99922
5999999.99905
5999999.99945
5999999.99932
5999999.9991
5999999.99918
5999999.9991
5999999.99898
5999999.99896
5999999.99894
5999999.99906
5999999.99921
5999999.99929
5999999.99926
5999999.99925
5999999.99913
5999999.99916
5999999.99921
5999999.99914
5999999.99901
5999999.9996
5999999.99947
5999999.99942
5999999.99982
5999999.99965
5999999.9997
5999999.99974
5999999.99957
5999999.99976
5999999.99963
5999999.99949
5999999.9994
5999999.99949
5999999.99974
5999999.99974
5999999.99973
5999999.99969
5999999.99945
5999999.99953