/*--------------------------------*- C++ -*----------------------------------*\
  =========                 |
  \\      /  F ield         | OpenFOAM: The Open Source CFD Toolbox
   \\    /   O peration     | Website:  https://openfoam.org
    \\  /    A nd           | Version:  6
     \\/     M anipulation  |
\*---------------------------------------------------------------------------*/
FoamFile
{
    version     2.0;
    format      ascii;
    class       volVectorField;
    location    "3.3e-05";
    object      U;
}
// * * * * * * * * * * * * * * * * * * * * * * * * * * * * * * * * * * * * * //

dimensions      [0 1 -1 0 0 0 0];

internalField   nonuniform List<vector> 
8192
(
(-88.3220000002 0 -2.360375969e-10)
(-88.3219999996 0 -2.8268297502e-11)
(-88.322 0 -5.31818193573e-11)
(-88.322 0 -6.50558932294e-11)
(-88.3219999999 0 -3.74494294756e-11)
(-88.322 0 1.09411702109e-11)
(-88.322 0 -1.3601996921e-12)
(-88.322 0 -4.0536820722e-12)
(-88.322 0 -7.37238417961e-11)
(-88.322 0 -3.11766206646e-10)
(-88.322 0 -2.67616729848e-10)
(-88.322 0 1.73251646199e-10)
(-88.322 0 3.48693424769e-10)
(-88.322 0 -2.48106550553e-10)
(-88.322 0 -4.23353952563e-10)
(-88.322 0 1.52022518353e-10)
(-88.322 0 6.50709855968e-12)
(-88.322 0 2.50987093889e-10)
(-88.322 0 -2.99495801149e-10)
(-88.322 0 -2.16123550288e-10)
(-88.322 0 2.26035686939e-10)
(-88.322 0 2.38182846051e-10)
(-88.322 0 -1.44625696893e-10)
(-88.322 0 -2.1452234733e-10)
(-88.322 0 5.0168640932e-11)
(-88.322 0 3.56783474022e-11)
(-88.322 0 5.42226906334e-11)
(-88.322 0 4.4801828498e-11)
(-88.3220000001 0 5.24044430646e-11)
(-88.322 0 -2.22111932279e-11)
(-88.3219999999 0 6.08405885029e-11)
(-88.322 0 3.25842691063e-11)
(-88.3219999996 0 7.59803835018e-12)
(-88.3220000005 0 2.47971967508e-10)
(-88.322000001 0 -2.19313697604e-10)
(-88.3219999995 0 -2.72697310371e-10)
(-88.322 0 -8.3287352423e-13)
(-88.3219999997 0 -2.86307210332e-10)
(-88.3219999994 0 1.26971329208e-10)
(-88.3220000002 0 3.16297209603e-11)
(-88.322 0 2.53485690561e-11)
(-88.322 0 -1.6040998619e-12)
(-88.322 0 -1.25975875518e-11)
(-88.322 0 -6.46652686549e-12)
(-88.322 0 -3.07687152892e-11)
(-88.322 0 -1.30257211224e-11)
(-88.322 0 -7.18959735779e-12)
(-88.322 0 -2.17663651342e-12)
(-88.322 0 1.02263387711e-14)
(-88.322 0 -1.61442637421e-11)
(-88.322 0 -4.08204239952e-12)
(-88.322 0 3.22328832762e-12)
(-88.3219999999 0 -4.11002258302e-11)
(-88.3219999999 0 9.29649084488e-11)
(-88.3220000005 0 6.77908226695e-11)
(-88.3220000002 0 -1.34001936407e-10)
(-88.3219999999 0 -3.51901726586e-11)
(-88.3219999999 0 -6.3283265081e-11)
(-88.322 0 -2.24199716859e-11)
(-88.3219999996 0 -6.99631040899e-11)
(-88.3219999993 0 1.48095687163e-10)
(-88.3219999998 0 2.61795733266e-10)
(-88.3220000004 0 2.38479730927e-10)
(-88.322000001 0 1.00566583947e-10)
(-88.322 0 2.60235041923e-11)
(-88.322 0 -1.27711812544e-11)
(-88.322 0 2.53479295864e-11)
(-88.322 0 1.30558866623e-11)
(-88.322 0 3.13766191463e-11)
(-88.322 0 -1.55963654901e-11)
(-88.322 0 -5.25531211637e-13)
(-88.3220000001 0 1.11489590717e-13)
(-88.3220000006 0 -2.78982681589e-12)
(-88.3220000003 0 -1.40199145973e-11)
(-88.3219999991 0 -2.38390691086e-12)
(-88.3219999988 0 -2.82347908367e-11)
(-88.3220000008 0 -7.85672018592e-12)
(-88.3220000015 0 -3.88395044245e-11)
(-88.3219999993 0 -9.20892153008e-11)
(-88.3219999992 0 6.42911678212e-11)
(-88.3219999998 0 -2.24222891517e-12)
(-88.3220000006 0 5.74409111924e-11)
(-88.3220000009 0 -8.06406267895e-11)
(-88.321999999 0 -6.33504370556e-11)
(-88.3219999991 0 7.28013472061e-12)
(-88.3220000008 0 7.11808963619e-11)
(-88.3220000008 0 6.52867300962e-11)
(-88.3219999996 0 -4.09390736508e-11)
(-88.3219999995 0 2.11768574706e-10)
(-88.322 0 -1.71255970368e-10)
(-88.322 0 1.75364036622e-10)
(-88.322 0 1.62656831875e-10)
(-88.322 0 6.49038140664e-11)
(-88.322 0 5.0035836189e-11)
(-88.322 0 8.29320647554e-12)
(-88.322 0 -3.16302894823e-11)
(-88.322 0 -2.75568608214e-11)
(-88.322 0 -2.26987339406e-10)
(-88.322 0 1.69382796536e-10)
(-88.322 0 2.41194129308e-10)
(-88.322 0 -1.60840758749e-11)
(-88.322 0 1.55063881242e-10)
(-88.322 0 -1.2529621312e-10)
(-88.322 0 -3.88226266983e-11)
(-88.322 0 -4.55028556368e-13)
(-88.322 0 -3.22507443893e-12)
(-88.322 0 -1.5267219578e-11)
(-88.322 0 -4.66997562781e-12)
(-88.322 0 -2.20640285904e-10)
(-88.322 0 -1.37663951238e-10)
(-88.322 0 -1.69093290308e-10)
(-88.322 0 -1.27998807189e-10)
(-88.322 0 -1.60439908494e-10)
(-88.322 0 -9.48798236698e-11)
(-88.322 0 1.66513314538e-10)
(-88.322 0 7.88466508378e-12)
(-88.322 0 6.18334109196e-12)
(-88.322 0 4.45371360618e-12)
(-88.322 0 -1.2901015343e-10)
(-88.322 0 2.84012711267e-10)
(-88.322 0 -6.05880200194e-11)
(-88.322 0 -2.23274053997e-10)
(-88.322 0 -3.08383873961e-10)
(-88.322 0 2.4364113087e-10)
(-88.322 0 8.25902298502e-11)
(-88.322 0 -5.66382863693e-10)
(-88.322 0 -5.33862927715e-10)
(-88.322 0 -2.2318443366e-10)
(-88.3219999999 0 1.66403852758e-11)
(-88.3219999996 0 8.810224442e-12)
(-88.322 0 -2.84967650566e-12)
(-88.322 0 3.41168597788e-11)
(-88.322 0 6.75126614749e-12)
(-88.322 0 1.23255315231e-11)
(-88.322 0 2.82042171127e-12)
(-88.322 0 8.0883941218e-12)
(-88.322 0 5.75991924392e-11)
(-88.322 0 2.98303421772e-10)
(-88.322 0 2.58028759132e-10)
(-88.322 0 -1.66723199836e-10)
(-88.322 0 -3.47251770234e-10)
(-88.3220000001 0 2.22097590036e-10)
(-88.3219999997 0 3.94472292094e-10)
(-88.3219999998 0 -1.52205317369e-10)
(-88.322 0 -8.39514297722e-12)
(-88.3220000001 0 -2.30679084022e-10)
(-88.3220000003 0 2.93910292268e-10)
(-88.3219999999 0 2.04282286026e-10)
(-88.3219999997 0 -2.26405798897e-10)
(-88.3219999999 0 -2.18225031902e-10)
(-88.3220000003 0 1.68855078651e-10)
(-88.3219999998 0 2.14442922586e-10)
(-88.3220000002 0 -2.33355135022e-11)
(-88.322 0 -3.48846128817e-11)
(-88.3219999993 0 -2.10401438708e-11)
(-88.3220000002 0 -1.74240267932e-11)
(-88.3220000003 0 8.77453569493e-11)
(-88.3220000001 0 -6.13856003907e-11)
(-88.3220000001 0 8.38865873077e-11)
(-88.3220000001 0 -8.43786163706e-12)
(-88.322 0 -1.45539735353e-10)
(-88.322 0 1.69927184198e-10)
(-88.322 0 2.47398076265e-10)
(-88.322 0 -5.54227837298e-11)
(-88.3220000002 0 -2.48332864838e-10)
(-88.322 0 3.25224638214e-10)
(-88.3219999998 0 2.71404719255e-10)
(-88.322 0 -2.8033035639e-10)
(-88.322 0 -2.16424692211e-10)
(-88.322 0 -6.14971671392e-12)
(-88.322 0 -1.07252366749e-10)
(-88.3220000005 0 -3.92733055251e-11)
(-88.3220000002 0 -1.02037442559e-10)
(-88.3219999999 0 2.06843169449e-11)
(-88.322 0 -2.13825179591e-10)
(-88.3219999999 0 -3.77686188663e-10)
(-88.3219999999 0 1.51476858998e-10)
(-88.3219999994 0 -4.75411246049e-12)
(-88.3219999998 0 -9.51933937541e-11)
(-88.3220000004 0 7.2788455156e-11)
(-88.3219999999 0 -2.24662619755e-10)
(-88.3220000001 0 1.75204931668e-10)
(-88.3219999999 0 -2.82330288138e-11)
(-88.3220000001 0 -1.91943831307e-10)
(-88.3220000009 0 -1.53605276716e-10)
(-88.3220000004 0 -1.30744920197e-10)
(-88.3219999991 0 -9.22233929841e-11)
(-88.3219999989 0 -7.06220777264e-11)
(-88.3220000009 0 -8.4289653029e-11)
(-88.322000001 0 3.70042040186e-11)
(-88.3219999997 0 1.27530595923e-12)
(-88.3219999999 0 1.22861823144e-11)
(-88.322 0 2.44805738215e-10)
(-88.322 0 6.2900285349e-11)
(-88.322 0 2.44453483215e-11)
(-88.322 0 3.73986464037e-11)
(-88.322 0 -7.33792241253e-12)
(-88.322 0 -6.33052063415e-13)
(-88.322 0 1.55527481288e-12)
(-88.322 0 1.22729222555e-11)
(-88.322 0 7.29711199931e-12)
(-88.322 0 3.1984873225e-11)
(-88.322 0 1.15149238871e-11)
(-88.322 0 1.18365296845e-11)
(-88.322 0 1.25774154655e-11)
(-88.322 0 6.47707327781e-11)
(-88.322 0 1.06490920081e-10)
(-88.322 0 -6.65984418816e-11)
(-88.322 0 3.81732220526e-13)
(-88.322 0 -7.47543719374e-11)
(-88.322 0 8.3004069261e-11)
(-88.322 0 1.55206141969e-10)
(-88.322 0 -1.94498717397e-10)
(-88.322 0 -3.95823747162e-10)
(-88.322 0 1.30313019251e-10)
(-88.322 0 1.82276779201e-10)
(-88.322 0 -8.31664541789e-11)
(-88.322 0 2.79725906101e-10)
(-88.322 0 -1.25171589373e-10)
(-88.3219999998 0 -7.92313148705e-11)
(-88.3220000001 0 -9.02019361579e-11)
(-88.322 0 -4.93638971082e-11)
(-88.3219999999 0 2.62378235519e-12)
(-88.3220000005 0 -3.10455551076e-11)
(-88.3219999996 0 -1.90001209719e-11)
(-88.3219999993 0 -1.04626432159e-11)
(-88.3220000005 0 2.56248439282e-11)
(-88.3220000009 0 2.94853977052e-11)
(-88.3219999993 0 -1.0322073377e-11)
(-88.321999999 0 1.31282648943e-10)
(-88.3220000011 0 7.04332479731e-12)
(-88.3220000009 0 3.78837698346e-12)
(-88.3219999994 0 -1.29611231165e-11)
(-88.3219999998 0 -7.88731254074e-12)
(-88.322 0 1.1695662129e-11)
(-88.322 0 8.14255915619e-12)
(-88.3219999999 0 2.43943546368e-10)
(-88.3220000002 0 1.38541285779e-10)
(-88.3220000008 0 1.64924795209e-10)
(-88.3219999993 0 1.05809986553e-10)
(-88.3219999993 0 1.77439902e-10)
(-88.3220000005 0 1.23413376391e-10)
(-88.3219999999 0 -1.70469295325e-10)
(-88.3220000002 0 5.22561915921e-11)
(-88.3219999997 0 -6.94860713236e-11)
(-88.3219999996 0 1.94782891732e-10)
(-88.3220000007 0 2.77366491179e-10)
(-88.3220000002 0 -3.68764770465e-10)
(-88.3219999999 0 -2.63895991645e-11)
(-88.3219999999 0 2.85417019684e-10)
(-88.3219999999 0 1.56703900365e-10)
(-88.3219999999 0 -1.45612409344e-10)
(-88.3219999998 0 -3.94772013089e-10)
(-88.3219999999 0 5.48837475802e-10)
(-88.322 0 3.81212704435e-10)
(-88.322 0 2.29376344652e-10)
(-88.3220000001 0 -1.25991717952e-10)
(-88.3220000001 0 -2.26180879571e-11)
(-88.322 0 1.97270137913e-11)
(-88.322 0 1.03847700051e-11)
(-88.322 0 -1.62451970028e-11)
(-88.322 0 5.63137765367e-12)
(-88.322 0 1.03245554149e-11)
(-88.322 0 1.73865093287e-11)
(-88.322 0 1.17148828208e-11)
(-88.322 0 3.60278259266e-12)
(-88.322 0 4.24651679103e-12)
(-88.322 0 -3.76878115381e-11)
(-88.322 0 -4.73379537384e-11)
(-88.322 0 -9.86159916658e-12)
(-88.322 0 7.95808430771e-12)
(-88.322 0 9.37219384855e-12)
(-88.322 0 1.64613893941e-11)
(-88.322 0 1.72446108684e-11)
(-88.3219999999 0 5.151348432e-13)
(-88.3220000004 0 9.19299669456e-12)
(-88.3220000008 0 6.29948885568e-12)
(-88.3219999993 0 2.03436073218e-12)
(-88.3219999991 0 3.68042508248e-12)
(-88.3220000001 0 -2.74638743539e-11)
(-88.3220000001 0 1.1001939397e-11)
(-88.3220000001 0 7.60147413503e-12)
(-88.322 0 8.87849776086e-11)
(-88.3220000001 0 1.31656998658e-10)
(-88.3220000003 0 1.43661352798e-10)
(-88.3219999999 0 1.58684556752e-11)
(-88.322 0 1.233364414e-10)
(-88.3220000001 0 1.53781525498e-10)
(-88.322 0 -1.98536012072e-11)
(-88.322 0 -2.27778714682e-10)
(-88.322 0 -3.69190603225e-10)
(-88.322 0 -8.35177748011e-11)
(-88.322 0 3.07714126446e-10)
(-88.322 0 -3.86184671193e-10)
(-88.322 0 -2.65318530027e-10)
(-88.322 0 2.40168969264e-10)
(-88.322 0 1.72514698952e-10)
(-88.322 0 6.13070077298e-12)
(-88.322 0 9.36389963771e-11)
(-88.322 0 3.61571096347e-11)
(-88.322 0 8.29181528096e-11)
(-88.322 0 -1.99565433022e-11)
(-88.322 0 2.08435663445e-10)
(-88.322 0 3.57446964312e-10)
(-88.3219999999 0 -1.42492159654e-10)
(-88.3220000001 0 2.72191544285e-12)
(-88.3219999999 0 7.2748047093e-11)
(-88.3220000001 0 -3.14840487259e-11)
(-88.3219999997 0 1.77477068773e-10)
(-88.3219999994 0 -1.6187421148e-10)
(-88.322000001 0 -1.07486800679e-11)
(-88.3220000007 0 -1.29172234891e-10)
(-88.3219999996 0 -4.4453393205e-11)
(-88.322 0 9.36430434971e-11)
(-88.3219999999 0 -2.42193076181e-10)
(-88.322 0 3.48819847237e-10)
(-88.3219999995 0 2.2817532144e-10)
(-88.3219999995 0 1.81950541576e-10)
(-88.3220000002 0 8.26392006525e-11)
(-88.3220000001 0 5.2635486881e-11)
(-88.3220000001 0 -2.14526109693e-11)
(-88.3219999997 0 -6.80636930904e-11)
(-88.322 0 1.22456042938e-10)
(-88.322 0 2.9710931867e-10)
(-88.322 0 -1.7699018266e-10)
(-88.322 0 2.87876396808e-10)
(-88.322 0 2.86257409328e-10)
(-88.322 0 -1.12103485415e-10)
(-88.322 0 -3.39034395202e-11)
(-88.322 0 3.43354842435e-11)
(-88.322 0 -3.84566004389e-12)
(-88.322 0 2.32744222288e-11)
(-88.322 0 5.45206297502e-11)
(-88.322 0 -1.07133666752e-10)
(-88.322 0 2.4180201303e-10)
(-88.322 0 2.41580614551e-10)
(-88.322 0 1.81511692185e-10)
(-88.322 0 7.9899823718e-11)
(-88.322 0 -1.18746639136e-10)
(-88.322 0 -1.05509780876e-10)
(-88.322 0 4.20142244602e-10)
(-88.322 0 5.59545905134e-10)
(-88.322 0 -2.48214683869e-10)
(-88.322 0 -3.14736661706e-10)
(-88.322 0 -1.82007051082e-10)
(-88.3219999999 0 1.42267297819e-10)
(-88.3219999997 0 8.70383710564e-11)
(-88.3219999997 0 -8.60423359541e-11)
(-88.3220000004 0 1.94833184194e-10)
(-88.322 0 1.40728244419e-10)
(-88.3219999997 0 6.08608182693e-11)
(-88.3220000008 0 -2.13146842051e-10)
(-88.3220000003 0 5.07486349887e-11)
(-88.3219999999 0 1.97309768846e-11)
(-88.3220000002 0 1.68700109548e-11)
(-88.3219999996 0 -5.6224783367e-13)
(-88.3219999999 0 4.42011830352e-12)
(-88.3220000001 0 8.32924410805e-12)
(-88.322 0 -6.90831851354e-12)
(-88.322 0 1.90189291511e-11)
(-88.322 0 1.26157008395e-11)
(-88.322 0 -7.37804414445e-12)
(-88.322 0 2.81385547984e-12)
(-88.322 0 2.22444900613e-12)
(-88.322 0 1.01432999328e-12)
(-88.322 0 -4.13656113701e-13)
(-88.322 0 2.03308847367e-12)
(-88.322 0 3.71231458393e-11)
(-88.322 0 -2.54498809552e-11)
(-88.322 0 -2.70143330416e-11)
(-88.322 0 1.38244579213e-11)
(-88.3220000001 0 -6.13927591383e-11)
(-88.322 0 1.30515214446e-10)
(-88.322 0 -2.6580353631e-10)
(-88.3220000007 0 -2.11314900366e-10)
(-88.3220000002 0 2.25508583871e-10)
(-88.3219999995 0 1.3525567024e-10)
(-88.3220000003 0 1.14121096673e-11)
(-88.3219999994 0 1.67069748995e-10)
(-88.321999999 0 -2.89934346968e-11)
(-88.3220000001 0 1.67824141831e-10)
(-88.3220000001 0 -2.19947450863e-10)
(-88.3220000003 0 -5.99227092727e-11)
(-88.3220000004 0 -9.97213961464e-11)
(-88.3220000001 0 1.48103901594e-10)
(-88.3219999998 0 1.59831886265e-11)
(-88.3219999993 0 -1.86522304888e-11)
(-88.3220000007 0 5.82879009428e-14)
(-88.322 0 1.76381699836e-12)
(-88.321999999 0 1.71151918517e-12)
(-88.3220000008 0 -1.36944070566e-11)
(-88.3220000006 0 -7.27767808836e-13)
(-88.3219999997 0 -1.60215655548e-11)
(-88.322 0 -1.07150059701e-10)
(-88.322 0 2.12825982239e-10)
(-88.3219999999 0 -3.01558199086e-10)
(-88.3220000003 0 -3.55538554914e-10)
(-88.3219999996 0 -6.88511399948e-11)
(-88.3219999993 0 -8.09553827532e-11)
(-88.3220000001 0 -4.67890434006e-11)
(-88.3220000004 0 -1.32385936538e-11)
(-88.3220000006 0 -1.78750774835e-11)
(-88.3220000002 0 1.36343712469e-12)
(-88.3219999993 0 -1.83924091626e-12)
(-88.3219999995 0 -3.5622513593e-13)
(-88.3220000006 0 4.92610278428e-12)
(-88.3220000009 0 -4.04918903592e-12)
(-88.322 0 2.29121528064e-11)
(-88.3219999992 0 -3.8698049528e-11)
(-88.3219999996 0 7.09895470267e-12)
(-88.3220000005 0 -9.90394518199e-11)
(-88.3219999999 0 -1.23425280537e-10)
(-88.3219999998 0 -2.46254054568e-10)
(-88.3220000001 0 4.82052360166e-11)
(-88.3220000008 0 -2.07699488153e-10)
(-88.3220000002 0 -2.13201017435e-10)
(-88.3219999994 0 3.54450857826e-10)
(-88.322 0 1.15955485863e-10)
(-88.322 0 -1.64303837647e-10)
(-88.322 0 -6.68538424365e-11)
(-88.322 0 -1.07063277576e-10)
(-88.322 0 3.48456722773e-10)
(-88.322 0 9.52024282853e-12)
(-88.322 0 -1.32249373077e-10)
(-88.322 0 1.33439629293e-11)
(-88.322 0 5.20722317255e-12)
(-88.322 0 -2.26263896767e-12)
(-88.322 0 8.04531564267e-12)
(-88.322 0 2.23576144585e-11)
(-88.322 0 1.46443474645e-12)
(-88.322 0 -7.9187906118e-14)
(-88.322 0 -3.47564067496e-13)
(-88.322 0 1.732252454e-12)
(-88.322 0 2.08612521491e-12)
(-88.322 0 1.85554746697e-11)
(-88.322 0 -1.97370911777e-11)
(-88.322 0 3.08651263442e-11)
(-88.322 0 -4.05188683369e-11)
(-88.322 0 2.51601591546e-11)
(-88.322 0 2.56655380494e-10)
(-88.322 0 1.16720117835e-10)
(-88.322 0 1.45389656744e-11)
(-88.322 0 3.15586538762e-10)
(-88.322 0 -2.43716199015e-10)
(-88.322 0 -1.21729346024e-10)
(-88.322 0 7.54132867646e-11)
(-88.322 0 9.08916772601e-11)
(-88.322 0 -5.14256928695e-11)
(-88.322 0 3.99926956796e-11)
(-88.322 0 7.75895410641e-11)
(-88.322 0 -1.20180872022e-10)
(-88.322 0 -2.86553077181e-10)
(-88.322 0 1.9483094906e-10)
(-88.322 0 -2.8539236623e-10)
(-88.322 0 -2.86771161163e-10)
(-88.322 0 1.10828741392e-10)
(-88.3220000002 0 3.40481495392e-11)
(-88.3219999995 0 -4.65182911523e-11)
(-88.3220000004 0 1.17701195972e-11)
(-88.3220000012 0 -1.95857422861e-11)
(-88.3219999996 0 -4.06154416117e-11)
(-88.3219999994 0 9.10856618198e-11)
(-88.3219999999 0 -2.43803371728e-10)
(-88.3219999999 0 -2.25029920531e-10)
(-88.3219999999 0 -1.7231279517e-10)
(-88.322 0 -6.79285133895e-11)
(-88.322 0 1.15815673583e-10)
(-88.322 0 1.62510889495e-11)
(-88.322 0 -2.24025791754e-10)
(-88.322 0 -2.45404454058e-10)
(-88.322 0 5.23301822549e-11)
(-88.322 0 1.79897885012e-10)
(-88.322 0 5.70040014753e-11)
(-88.322 0 -2.40316754307e-10)
(-88.322 0 -1.45592064877e-10)
(-88.322 0 -7.36113329683e-12)
(-88.322 0 -2.00992417111e-10)
(-88.322 0 -1.32248247041e-10)
(-88.3220000001 0 -1.091528095e-10)
(-88.3219999997 0 2.43269788525e-10)
(-88.3219999998 0 -2.01909632124e-11)
(-88.322000001 0 -1.10695758244e-11)
(-88.3220000006 0 -3.61250807315e-11)
(-88.3219999994 0 -1.1955649627e-11)
(-88.321999999 0 3.66596510853e-11)
(-88.3219999999 0 -7.35220546907e-12)
(-88.3220000009 0 9.46104766362e-12)
(-88.3220000001 0 -1.73663218108e-11)
(-88.3219999997 0 -5.40655308108e-12)
(-88.322 0 1.71179216417e-11)
(-88.322 0 1.50418216846e-12)
(-88.322 0 -4.84493069688e-12)
(-88.322 0 -2.3576809781e-11)
(-88.322 0 -7.06484338302e-12)
(-88.322 0 1.94161580655e-12)
(-88.322 0 -1.85893440711e-11)
(-88.322 0 6.8557204432e-12)
(-88.322 0 5.6909720637e-12)
(-88.322 0 -1.401437466e-11)
(-88.322 0 7.01148784792e-12)
(-88.322 0 -2.44018664571e-11)
(-88.322 0 2.30566049768e-10)
(-88.3220000001 0 2.06352517561e-10)
(-88.322 0 -2.67166002186e-10)
(-88.322 0 -1.67302663667e-10)
(-88.322 0 -2.42712044454e-11)
(-88.3219999999 0 -2.25742788303e-10)
(-88.3219999999 0 5.32378429562e-11)
(-88.3219999995 0 -2.02058763291e-10)
(-88.3219999998 0 2.15954362584e-10)
(-88.3220000006 0 1.16369169264e-12)
(-88.3220000002 0 3.12979110307e-11)
(-88.322 0 -8.59488869958e-11)
(-88.3220000001 0 -3.56429202581e-11)
(-88.322 0 -1.68884124554e-11)
(-88.322 0 -1.635931175e-11)
(-88.322 0 -1.26991196332e-12)
(-88.322 0 1.53999190288e-12)
(-88.322 0 -5.72129878833e-13)
(-88.322 0 -1.74322770429e-11)
(-88.322 0 1.26498433987e-11)
(-88.322 0 9.24665169641e-11)
(-88.322 0 -2.21993677728e-10)
(-88.322 0 3.35634069765e-10)
(-88.322 0 4.10053144518e-10)
(-88.322 0 7.61648766988e-11)
(-88.322 0 7.45716288133e-11)
(-88.322 0 3.55852122646e-11)
(-88.322 0 -1.52044686571e-12)
(-88.322 0 5.779751826e-12)
(-88.322 0 3.47319655731e-12)
(-88.322 0 -5.11017434159e-13)
(-88.322 0 -7.24578646975e-12)
(-88.322 0 3.75593848473e-12)
(-88.322 0 9.83073515949e-12)
(-88.322 0 6.7739254469e-13)
(-88.322 0 8.71655512708e-12)
(-88.322 0 -1.47437086801e-11)
(-88.322 0 3.47248134121e-12)
(-88.322 0 2.36084639038e-12)
(-88.322 0 -3.48250198831e-12)
(-88.322 0 -1.64255272488e-12)
(-88.322 0 1.68025980971e-11)
(-88.322 0 3.55316798309e-11)
(-88.322 0 -1.32655715939e-10)
(-88.322 0 1.86083501698e-10)
(-88.322 0 9.98110285677e-11)
(-88.322 0 -8.5101470162e-12)
(-88.322 0 -1.08501826976e-11)
(-88.322 0 -4.86820914421e-10)
(-88.322 0 3.7117615688e-11)
(-88.322 0 1.6511233125e-10)
(-88.322 0 1.16728527482e-11)
(-88.322 0 -4.34032028541e-12)
(-88.322 0 1.43097670957e-11)
(-88.322 0 -1.74135734973e-11)
(-88.322 0 -1.71783979101e-11)
(-88.322 0 -7.24390409926e-12)
(-88.322 0 4.99097423014e-12)
(-88.322 0 8.03734843078e-12)
(-88.322 0 1.55426533349e-11)
(-88.322 0 1.79403216397e-11)
(-88.322 0 -4.60875346836e-12)
(-88.322 0 2.36099073211e-12)
(-88.3219999996 0 -2.25915836537e-11)
(-88.3219999996 0 5.85853342049e-11)
(-88.3220000011 0 5.34029445849e-11)
(-88.3220000008 0 -1.45001974897e-10)
(-88.3219999995 0 -7.37574576115e-11)
(-88.3220000001 0 -8.99573275469e-11)
(-88.3219999999 0 -2.01143128603e-11)
(-88.3219999999 0 -1.69328743193e-11)
(-88.3219999996 0 7.43600254352e-11)
(-88.3219999996 0 -5.19729583476e-10)
(-88.3220000003 0 -3.30142031188e-10)
(-88.322 0 -1.19239256871e-10)
(-88.3219999999 0 6.60220017314e-12)
(-88.3219999999 0 6.98154466392e-11)
(-88.322 0 -2.94153891427e-11)
(-88.322 0 -6.57478504569e-12)
(-88.322 0 1.16299556841e-11)
(-88.322 0 5.24593169166e-12)
(-88.322 0 -1.8055196298e-11)
(-88.322 0 -3.67798025913e-11)
(-88.322 0 -1.7641672576e-11)
(-88.322 0 -1.83396412509e-11)
(-88.322 0 -5.69972854446e-12)
(-88.322 0 -9.20752025792e-12)
(-88.322 0 -6.22001490076e-12)
(-88.322 0 -1.97119071212e-12)
(-88.322 0 -6.54970628154e-12)
(-88.322 0 -6.54955215392e-12)
(-88.322 0 -8.82917272867e-12)
(-88.322 0 -6.75656520155e-12)
(-88.322 0 1.65748116962e-11)
(-88.322 0 -4.87735059304e-11)
(-88.322 0 -3.87677361915e-11)
(-88.322 0 1.62526858263e-10)
(-88.322 0 1.47727204836e-10)
(-88.322 0 -2.24279859829e-10)
(-88.322 0 -2.236351812e-10)
(-88.322 0 -1.022540182e-10)
(-88.322 0 1.26813530856e-11)
(-88.322 0 -6.38538476617e-11)
(-88.322 0 3.33220946357e-11)
(-88.322 0 -9.16239968205e-11)
(-88.322 0 -2.44005890234e-10)
(-88.322 0 -1.80826610291e-10)
(-88.3219999995 0 5.70406839408e-12)
(-88.3220000005 0 -2.28690196958e-10)
(-88.3220000009 0 -2.81533880002e-10)
(-88.3219999997 0 -3.05962027757e-10)
(-88.322 0 2.67543852235e-10)
(-88.3219999998 0 2.76726872131e-10)
(-88.3219999995 0 -2.5861779713e-10)
(-88.3220000001 0 -2.53515985481e-10)
(-88.322 0 1.70116685131e-10)
(-88.322 0 4.32059326852e-11)
(-88.322 0 -2.38109364066e-10)
(-88.322 0 -2.64440429835e-10)
(-88.322 0 2.26967892885e-10)
(-88.322 0 -1.56757125861e-10)
(-88.322 0 4.14991759303e-11)
(-88.322 0 -3.2481665377e-10)
(-88.322 0 3.22247545315e-10)
(-88.322 0 -1.65935810141e-11)
(-88.322 0 1.31281911427e-11)
(-88.3220000001 0 4.44738776867e-11)
(-88.3219999999 0 -1.47873781041e-10)
(-88.3219999999 0 -3.66693475469e-10)
(-88.3220000005 0 -3.69529223186e-10)
(-88.3220000003 0 -3.80080141909e-11)
(-88.3219999999 0 3.9975242365e-10)
(-88.3219999999 0 3.17193870316e-10)
(-88.3219999997 0 -8.95277032293e-11)
(-88.3219999997 0 -2.54601168163e-10)
(-88.3220000005 0 2.56206089381e-10)
(-88.3220000006 0 -2.50773107648e-11)
(-88.3219999998 0 -9.39828057717e-11)
(-88.3219999999 0 2.67393955575e-11)
(-88.322 0 6.48612187464e-11)
(-88.3220000001 0 3.90644911228e-11)
(-88.3220000001 0 2.54396211185e-11)
(-88.322 0 -4.54247804982e-11)
(-88.322 0 2.1317847105e-11)
(-88.322 0 -5.21589844934e-11)
(-88.322 0 2.86393487167e-11)
(-88.322 0 3.87153372262e-11)
(-88.322 0 -5.91610534317e-11)
(-88.322 0 -1.93229760686e-10)
(-88.322 0 -1.11693646359e-10)
(-88.322 0 -2.14454918946e-10)
(-88.322 0 -2.53044343794e-10)
(-88.322 0 -1.75908578788e-10)
(-88.322 0 4.7814545011e-11)
(-88.322 0 3.20537704314e-11)
(-88.322 0 3.5901657798e-11)
(-88.322 0 -1.25415428663e-10)
(-88.3220000001 0 -2.44116981708e-10)
(-88.3220000001 0 1.37369748163e-10)
(-88.3219999995 0 2.18061121704e-10)
(-88.3219999997 0 3.33514723464e-10)
(-88.3220000008 0 -1.89739614419e-10)
(-88.3220000007 0 -9.88269946237e-11)
(-88.3219999997 0 1.06513150025e-10)
(-88.3219999995 0 9.1903663441e-11)
(-88.3219999999 0 9.33149264199e-11)
(-88.322 0 4.44676004209e-11)
(-88.3220000001 0 4.33638795184e-11)
(-88.3220000005 0 4.1307244053e-11)
(-88.3220000001 0 -3.42423276522e-11)
(-88.3219999995 0 1.77241148517e-11)
(-88.3220000001 0 -3.01130218044e-11)
(-88.3220000006 0 -2.73168450062e-10)
(-88.3220000002 0 2.0919729181e-10)
(-88.3219999989 0 2.91998928663e-10)
(-88.3219999987 0 1.70292615495e-10)
(-88.322000001 0 3.56262538504e-10)
(-88.322000001 0 -1.29009555551e-10)
(-88.3219999992 0 1.43187048976e-11)
(-88.3219999994 0 3.94834413035e-12)
(-88.3220000008 0 -1.50287829404e-12)
(-88.3220000006 0 9.59539349458e-12)
(-88.3219999991 0 -1.51868629179e-11)
(-88.3219999998 0 1.35415231932e-11)
(-88.3220000003 0 -2.35885285606e-11)
(-88.3220000003 0 -7.29555803919e-11)
(-88.3219999994 0 9.18046002243e-11)
(-88.3219999993 0 7.85002653104e-11)
(-88.3220000007 0 1.45707112952e-10)
(-88.3219999999 0 -1.90841188074e-10)
(-88.3220000002 0 -2.1704781537e-10)
(-88.3220000004 0 1.76001175796e-10)
(-88.322 0 -2.61017594522e-11)
(-88.3220000004 0 2.62640017221e-11)
(-88.3219999993 0 1.73672137468e-10)
(-88.3219999988 0 2.61525083581e-10)
(-88.322000001 0 2.41557664497e-10)
(-88.322000001 0 -6.180008407e-11)
(-88.3219999992 0 -5.16714688852e-11)
(-88.3219999992 0 -1.49612703513e-10)
(-88.3220000003 0 2.26465729133e-10)
(-88.3220000003 0 1.54838169542e-10)
(-88.3219999998 0 1.0850549764e-10)
(-88.322 0 -6.72919564978e-11)
(-88.322 0 -9.83803166222e-11)
(-88.322 0 2.15399511089e-11)
(-88.322 0 -1.76824666167e-11)
(-88.322 0 -3.47540092089e-12)
(-88.322 0 -1.04344633628e-11)
(-88.3219999999 0 5.10031262095e-12)
(-88.3220000001 0 1.91040969828e-11)
(-88.3220000005 0 9.97868637479e-12)
(-88.3220000001 0 -3.85954536086e-12)
(-88.322 0 -3.68408168949e-11)
(-88.3220000002 0 -6.2796523122e-12)
(-88.322 0 -2.91503265368e-11)
(-88.3219999994 0 -1.53605820491e-11)
(-88.3219999996 0 -1.33057254498e-11)
(-88.322 0 -1.01320179422e-11)
(-88.3220000003 0 -2.8507900259e-12)
(-88.3220000006 0 5.20306304438e-12)
(-88.3219999995 0 -2.47349059262e-11)
(-88.3219999991 0 5.29966627905e-11)
(-88.3219999995 0 3.67354954197e-11)
(-88.3220000008 0 -1.45861990218e-10)
(-88.3220000009 0 -1.38559222827e-10)
(-88.3219999995 0 2.07848109044e-10)
(-88.3219999996 0 2.26606146255e-10)
(-88.322 0 9.77087485581e-11)
(-88.322 0 -9.822605916e-12)
(-88.322 0 6.56600846624e-11)
(-88.322 0 -2.35256397905e-11)
(-88.3220000001 0 9.48322816061e-11)
(-88.322 0 2.43443883848e-10)
(-88.322 0 1.81053173833e-10)
(-88.322 0 -1.01738798671e-11)
(-88.322 0 2.25719726089e-10)
(-88.3219999999 0 2.84385823068e-10)
(-88.3219999998 0 3.28659374098e-10)
(-88.3219999999 0 -2.70034700749e-10)
(-88.3220000004 0 -2.57336940506e-10)
(-88.3220000002 0 2.92456756074e-10)
(-88.3219999999 0 2.62119352415e-10)
(-88.322 0 -1.6169419617e-10)
(-88.322 0 -4.0992600627e-11)
(-88.322 0 2.33433819048e-10)
(-88.322 0 2.60312468417e-10)
(-88.322 0 -2.35815010189e-10)
(-88.3220000001 0 1.50775613371e-10)
(-88.3219999999 0 -4.62054937761e-11)
(-88.3219999996 0 3.19972621116e-10)
(-88.3219999999 0 -3.25491077053e-10)
(-88.3220000006 0 1.805479216e-11)
(-88.3220000007 0 1.00866312187e-12)
(-88.3219999994 0 -1.24570228788e-10)
(-88.3219999995 0 4.18017484732e-11)
(-88.3220000001 0 3.44214237482e-10)
(-88.3220000001 0 2.93275006107e-10)
(-88.3219999999 0 4.79047729895e-11)
(-88.3219999998 0 -1.90292035066e-10)
(-88.3220000005 0 -3.27008758279e-10)
(-88.3220000003 0 2.81698753074e-10)
(-88.3219999999 0 1.86595153144e-10)
(-88.322 0 -7.419445192e-11)
(-88.322 0 -2.08132470158e-10)
(-88.322 0 5.02298117155e-11)
(-88.322 0 -6.38413971771e-11)
(-88.322 0 2.31934004829e-12)
(-88.322 0 1.62326880135e-11)
(-88.322 0 -1.12945364584e-11)
(-88.322 0 4.87336018401e-11)
(-88.322 0 -1.27792316463e-11)
(-88.322 0 4.62955311181e-11)
(-88.322 0 -3.61345990995e-11)
(-88.322 0 -4.26499587298e-11)
(-88.322 0 -5.47153603892e-11)
(-88.322 0 -1.84876113792e-11)
(-88.322 0 1.24863358427e-10)
(-88.322 0 5.58902025277e-11)
(-88.322 0 -5.79500118173e-11)
(-88.322 0 -8.83706784497e-11)
(-88.322 0 -2.2513946151e-12)
(-88.322 0 -6.52097362032e-12)
(-88.322 0 -3.9830472511e-11)
(-88.322 0 1.19224355314e-10)
(-88.322 0 2.44440569523e-10)
(-88.322 0 -1.37910720647e-10)
(-88.322 0 -2.23544667079e-10)
(-88.322 0 -3.35453865325e-10)
(-88.322 0 1.73299173961e-10)
(-88.322 0 1.01706379273e-10)
(-88.322 0 -1.0022904335e-10)
(-88.322 0 -8.96012917301e-11)
(-88.322 0 -9.51421014401e-11)
(-88.322 0 -5.79941203545e-11)
(-88.322 0 -5.21853546173e-11)
(-88.322 0 -2.56132768297e-11)
(-88.322 0 1.78112200054e-11)
(-88.322 0 5.70973621587e-11)
(-88.322 0 -7.72835959682e-11)
(-88.322 0 1.18836671302e-10)
(-88.322 0 -1.54763240093e-10)
(-88.322 0 -1.93812463079e-10)
(-88.322 0 -2.07400474943e-10)
(-88.322 0 4.30116218981e-11)
(-88.322 0 -1.56053923716e-10)
(-88.3220000001 0 -2.46031594791e-10)
(-88.322 0 1.86518844168e-10)
(-88.322 0 1.4768445663e-10)
(-88.322 0 -1.46399092386e-10)
(-88.322 0 -7.85401222589e-12)
(-88.322 0 -2.33351884416e-10)
(-88.322 0 -2.27662902367e-10)
(-88.322 0 -7.02222495317e-11)
(-88.322 0 -2.69036902683e-10)
(-88.322 0 -1.41448934591e-10)
(-88.322 0 -1.78291087352e-10)
(-88.3220000001 0 1.39723857257e-10)
(-88.3220000002 0 2.22499798082e-10)
(-88.3219999994 0 -1.96125144026e-10)
(-88.3219999995 0 1.51948656977e-11)
(-88.322000001 0 -1.48601850613e-10)
(-88.3220000002 0 1.66163022657e-10)
(-88.3219999996 0 -1.9028498688e-10)
(-88.3220000001 0 -4.40856725487e-10)
(-88.322 0 -1.70005265171e-10)
(-88.3219999999 0 -2.14383091245e-11)
(-88.322 0 5.31931828342e-11)
(-88.322 0 1.10108499113e-11)
(-88.322 0 3.78145977768e-13)
(-88.322 0 5.34241870378e-13)
(-88.322 0 5.12961096269e-11)
(-88.322 0 -1.01926236006e-10)
(-88.322 0 -2.30949739353e-11)
(-88.322 0 -9.32690573653e-12)
(-88.322 0 -1.27617051351e-11)
(-88.322 0 -2.86646531207e-12)
(-88.322 0 1.03463721877e-11)
(-88.3220000002 0 -1.61673979389e-11)
(-88.3220000004 0 3.56619514424e-11)
(-88.3219999997 0 -6.80631814017e-11)
(-88.3219999999 0 2.70009391828e-10)
(-88.3220000006 0 -3.09750085194e-10)
(-88.3220000002 0 -3.49873407036e-10)
(-88.3219999993 0 -5.17237179572e-12)
(-88.3219999994 0 -1.04044511037e-11)
(-88.3220000001 0 -1.33243633171e-11)
(-88.322 0 -4.63343270514e-12)
(-88.322 0 -7.39310536664e-12)
(-88.322 0 5.6851637675e-12)
(-88.322 0 -3.4345410137e-12)
(-88.322 0 -8.5434446023e-12)
(-88.322 0 -2.35334270927e-11)
(-88.322 0 -1.24290329188e-11)
(-88.322 0 1.31833216859e-11)
(-88.322 0 -6.13042168718e-12)
(-88.322 0 -4.16877926525e-12)
(-88.322 0 -1.22464964273e-11)
(-88.322 0 -6.6875246885e-12)
(-88.322 0 -2.54449868859e-11)
(-88.322 0 -1.43068277561e-12)
(-88.3219999999 0 -7.6059811915e-15)
(-88.3220000002 0 1.10042635435e-12)
(-88.3219999999 0 -4.60295994508e-13)
(-88.3220000001 0 -3.0519085863e-12)
(-88.3220000005 0 3.35320473052e-12)
(-88.3219999999 0 2.25596669117e-12)
(-88.3219999994 0 -3.17557304447e-11)
(-88.3220000002 0 -7.65422859126e-12)
(-88.3220000008 0 -2.61003281731e-12)
(-88.3219999991 0 -2.38148085946e-12)
(-88.3219999992 0 -4.45410635872e-13)
(-88.3220000007 0 3.77049404038e-12)
(-88.3220000003 0 1.49328860203e-13)
(-88.3220000002 0 7.12177302263e-13)
(-88.3220000005 0 5.6757737451e-13)
(-88.3219999998 0 -2.60150225864e-12)