/*--------------------------------*- C++ -*----------------------------------*\
  =========                 |
  \\      /  F ield         | OpenFOAM: The Open Source CFD Toolbox
   \\    /   O peration     | Website:  https://openfoam.org
    \\  /    A nd           | Version:  6
     \\/     M anipulation  |
\*---------------------------------------------------------------------------*/
FoamFile
{
    version     2.0;
    format      ascii;
    class       volScalarField;
    location    "4.64e-05";
    object      p;
}
// * * * * * * * * * * * * * * * * * * * * * * * * * * * * * * * * * * * * * //

dimensions      [1 -1 -2 0 0 0 0];

internalField   nonuniform List<scalar> 
8192
(
6000000.00053
5999999.99942
6000000.00051
6000000.00065
6000000.00424
5999999.99763
6000000.00136
5999999.99982
6000000.0001
5999999.99982
6000000.00027
5999999.99977
6000000.00061
6000000.00142
6000000.00071
6000000.0005
6000000.00059
5999999.99856
5999999.99895
6000000.00067
5999999.99851
5999999.99725
6000000.00175
5999999.99978
5999999.99958
6000000.00011
5999999.99852
5999999.99924
5999999.99823
5999999.99929
6000000.00018
6000000.00038
5999999.99672
5999999.9937
6000000.00771
6000000.00763
5999999.99904
6000000.0046
5999999.99932
5999999.99744
6000000.00298
5999999.99803
6000000.00009
5999999.9999
6000000.0003
6000000.00026
6000000.00002
6000000.00005
5999999.99914
6000000.00136
5999999.99733
6000000.00034
6000000.0029
5999999.99625
5999999.99695
6000000.0014
6000000.00002
6000000.0029
5999999.99984
6000000.00527
5999999.99677
5999999.99764
5999999.99723
6000000.00201
6000000.00047
6000000.0019
5999999.99965
6000000.00362
5999999.99601
6000000.00297
5999999.99878
5999999.99718
6000000.00262
6000000.00284
6000000.00685
5999999.99672
5999999.99426
6000000.00651
6000000.00253
5999999.99547
5999999.99473
5999999.99249
6000000.00315
6000000.00585
6000000.00009
5999999.99902
6000000.00643
6000000.00481
5999999.99791
5999999.99716
5999999.99876
5999999.99831
5999999.99719
6000000.00387
5999999.9971
6000000.00192
6000000.00159
5999999.99942
6000000.00373
5999999.99824
5999999.99968
5999999.99988
5999999.99971
6000000.00015
5999999.9991
6000000.0003
6000000.00012
6000000
5999999.99998
5999999.99998
6000000.00007
6000000.00016
5999999.99955
6000000.00059
5999999.99976
6000000.0011
6000000.00011
5999999.9989
6000000.00082
5999999.99931
5999999.99928
5999999.99895
6000000.00004
5999999.99929
6000000.0002
5999999.99952
6000000.00033
6000000.00031
6000000.00569
6000000.00057
5999999.99764
6000000.0006
5999999.99894
5999999.99946
5999999.99997
5999999.99983
6000000.00046
6000000.00088
5999999.99852
6000000.00373
6000000.00081
6000000.00325
6000000.00443
5999999.9968
5999999.99658
5999999.99812
6000000.00215
6000000.00232
5999999.99992
5999999.9999
5999999.99889
6000000.00066
5999999.99507
6000000.0009
5999999.99668
5999999.99654
6000000.00141
6000000.00063
5999999.99862
5999999.99912
5999999.99978
5999999.99957
6000000.00024
6000000.00053
5999999.99965
6000000.00231
6000000.00018
6000000.00107
5999999.99824
6000000.00056
5999999.99767
6000000.00298
6000000.00212
6000000.00279
6000000.00193
6000000.00411
6000000.00247
6000000.00072
5999999.99437
6000000.00267
6000000.00141
5999999.9982
6000000.00074
5999999.99792
6000000.00265
6000000.00128
6000000.00212
5999999.99386
5999999.9923
6000000.00184
6000000.00636
6000000.00422
5999999.99931
5999999.99964
6000000.00072
6000000.00014
5999999.99992
6000000.00001
5999999.99997
6000000.00001
6000000.00015
6000000.00002
6000000.00007
5999999.9978
5999999.99762
6000000.00271
5999999.99924
5999999.99998
6000000.00004
5999999.99998
6000000.00011
6000000.00027
6000000.00024
5999999.99944
5999999.99994
6000000.00003
5999999.9998
5999999.99998
5999999.99988
5999999.99629
6000000.00056
6000000.0015
5999999.99694
6000000.00092
6000000.00699
5999999.99399
5999999.99674
6000000.00534
6000000.00865
5999999.99173
5999999.99565
6000000.00164
6000000.00385
5999999.99585
6000000.00295
6000000.00017
6000000.00447
5999999.99821
6000000.0072
6000000.00366
5999999.99215
6000000.00042
6000000.00597
5999999.99807
6000000.0052
5999999.9943
5999999.99874
6000000.0017
6000000.00281
6000000.00351
6000000.00055
6000000.00218
6000000.00082
5999999.99895
5999999.99941
5999999.99917
5999999.99985
5999999.99887
6000000.00047
5999999.9982
6000000.0024
5999999.99858
5999999.99973
5999999.99933
5999999.99976
5999999.99992
5999999.99993
6000000.00108
6000000.00155
5999999.99697
6000000.00048
6000000.00101
6000000.00002
6000000.00252
5999999.99496
5999999.99728
6000000.00529
6000000.00128
5999999.99622
5999999.99515
5999999.99926
5999999.99484
5999999.99826
5999999.99485
6000000.00149
6000000.00484
5999999.99635
6000000.00056
5999999.99909
6000000.00136
5999999.99966
5999999.99923
6000000.00169
5999999.99756
6000000.0016
6000000.00004
6000000.00002
6000000.00016
6000000.00001
6000000.00001
6000000.00002
6000000.00024
5999999.99889
6000000.00142
5999999.9972
5999999.99983
5999999.99873
6000000.00132
6000000.00523
5999999.99844
5999999.99415
6000000.00266
6000000.006
5999999.998
6000000.00351
5999999.99824
6000000.00629
5999999.9967
5999999.99702
5999999.99656
6000000.0022
6000000.00189
5999999.99586
6000000.00181
6000000.00084
6000000.00034
6000000.00078
5999999.99902
6000000.00019
6000000.00045
5999999.99839
6000000.0026
6000000.0023
6000000.00096
6000000.00017
5999999.99966
5999999.99733
5999999.99769
6000000.00055
6000000.00077
5999999.99982
5999999.99864
5999999.99804
6000000.00089
5999999.99666
6000000.00072
5999999.99688
5999999.99387
5999999.99656
6000000.00321
5999999.99761
5999999.99625
6000000.00732
5999999.99875
6000000.00288
6000000.0001
5999999.99708
6000000.00391
5999999.99604
6000000.00333
5999999.99975
5999999.99952
6000000.00065
5999999.99996
6000000.00036
6000000.0001
6000000.00046
6000000.00167
5999999.99833
6000000.0029
6000000.00099
5999999.99783
6000000.00176
5999999.99988
5999999.99985
6000000.00398
5999999.99844
6000000.00331
6000000.00312
5999999.99367
5999999.99301
5999999.99571
5999999.99883
6000000.00087
6000000.00181
6000000.00237
5999999.99489
5999999.99169
6000000.00155
5999999.99635
5999999.99864
6000000.00537
5999999.99845
5999999.99886
6000000.00184
5999999.99699
5999999.99797
6000000.00654
5999999.99599
5999999.99899
5999999.99364
6000000.0015
6000000.00523
5999999.99992
5999999.99802
5999999.99116
6000000.00363
5999999.99948
6000000.00411
5999999.99845
5999999.997
6000000.00272
5999999.99498
5999999.99381
6000000.00021
6000000.00294
5999999.99818
5999999.99789
5999999.99759
6000000.00184
6000000.00198
5999999.99808
6000000.00168
5999999.99865
5999999.99927
6000000.00073
5999999.99948
5999999.99986
6000000.00005
6000000.00019
6000000.0011
5999999.9968
6000000.00112
6000000.00022
5999999.99953
5999999.99722
6000000.00141
6000000.00056
5999999.9988
6000000.00113
6000000.00114
5999999.99806
5999999.99926
6000000.00029
5999999.99948
5999999.99728
5999999.99705
5999999.99878
5999999.99611
6000000.00213
6000000.00198
6000000.0005
6000000.00037
5999999.99934
6000000.00244
5999999.99809
6000000.00291
6000000.0021
5999999.99531
6000000.00445
6000000.0014
6000000.00048
6000000.00078
5999999.99851
6000000.00204
5999999.99971
5999999.99931
6000000.00078
6000000.00022
5999999.99962
5999999.99778
6000000.00342
5999999.99732
5999999.9996
6000000.00144
5999999.99726
6000000.00315
5999999.99681
6000000.00207
5999999.99909
5999999.9997
5999999.99774
6000000.00263
6000000.00637
5999999.99811
5999999.99804
6000000.00066
6000000.00254
5999999.99859
5999999.99785
6000000.00495
5999999.99838
5999999.99988
5999999.9998
6000000.00068
6000000.00296
5999999.99768
6000000.00394
5999999.99849
5999999.99865
6000000.00174
6000000.00002
5999999.99987
6000000.00295
6000000.00085
6000000.00244
5999999.99911
5999999.99888
5999999.99948
5999999.9971
5999999.99522
6000000.00237
6000000.00084
5999999.99877
5999999.99962
5999999.99909
6000000.00003
5999999.99862
6000000.00054
5999999.99946
6000000.00025
5999999.99989
6000000
6000000.00003
5999999.9991
6000000.00046
6000000.00007
5999999.99988
5999999.99989
5999999.9998
6000000.00009
6000000.00014
5999999.99985
5999999.99989
5999999.99982
6000000.00002
5999999.99981
5999999.99992
5999999.9998
5999999.99971
6000000
6000000
5999999.99981
5999999.99998
6000000.00001
5999999.99992
5999999.99863
6000000.00261
5999999.99824
5999999.99937
5999999.99936
5999999.99949
6000000.00004
5999999.99998
6000000.00001
6000000
6000000.00085
6000000.00029
6000000.00002
6000000.00005
5999999.99957
5999999.99765
6000000.00263
6000000.00229
5999999.99893
5999999.99415
5999999.99264
6000000.00181
6000000.00515
6000000.00182
6000000.00411
5999999.99671
6000000.00454
5999999.99378
6000000.00078
5999999.99653
6000000.00046
6000000.00018
6000000.0024
5999999.99914
6000000.00153
5999999.99744
6000000.00135
5999999.99993
6000000.00003
6000000.00026
6000000.0002
5999999.99996
5999999.99948
6000000.00226
5999999.99976
6000000.00001
6000000.00002
5999999.99992
5999999.99989
6000000.00006
6000000.00033
5999999.99936
5999999.99913
5999999.99912
5999999.99894
5999999.99976
5999999.99875
5999999.9975
6000000.00139
6000000.00076
6000000.00073
6000000.00193
5999999.99777
5999999.9972
6000000.0077
6000000.00353
6000000.00108
6000000.00337
5999999.99741
5999999.99915
6000000.00052
5999999.99978
6000000.00044
6000000.00005
6000000.00055
6000000.00017
6000000.00201
5999999.99924
5999999.99865
6000000.00021
5999999.99964
6000000.00013
6000000.00497
5999999.99977
5999999.99768
6000000.00314
6000000.00176
6000000.00081
6000000.00091
5999999.99725
5999999.99821
6000000.00471
6000000.00464
6000000.00275
5999999.99763
5999999.99769
6000000.00255
5999999.99976
5999999.99834
5999999.99749
6000000.00328
6000000.00226
6000000.00004
6000000.00142
5999999.99853
6000000.00102
5999999.99954
6000000.00064
6000000.00065
6000000.00051
6000000.00079
5999999.9994
5999999.99905
6000000.00156
6000000.00133
5999999.99347
5999999.9951
6000000.00357
6000000.00128
5999999.99972
5999999.99846
6000000.00267
5999999.99748
6000000.00085
6000000.00149
6000000.00252
5999999.99358
6000000.00288
6000000.00176
6000000.00516
5999999.99525
5999999.99757
6000000.0014
6000000.00097
5999999.99456
5999999.99841
6000000.00362
6000000.00588
5999999.99886
6000000.00177
6000000.00131
6000000.00448
5999999.99716
6000000.0012
6000000.0017
5999999.99596
6000000.00328
6000000.00297
6000000.00566
6000000.00884
5999999.99512
5999999.99779
6000000.00407
6000000.00649
5999999.99422
5999999.99415
6000000.00237
5999999.99767
6000000.00001
6000000.00057
5999999.99688
6000000.00235
5999999.99757
6000000.00114
5999999.99685
5999999.99514
6000000.00306
6000000.00343
5999999.99896
6000000.00345
6000000.00152
6000000.00047
5999999.99953
5999999.99948
5999999.99807
6000000.00389
6000000.00771
5999999.99642
5999999.99875
5999999.99209
6000000.00518
6000000.00667
5999999.99574
5999999.99699
5999999.99608
5999999.99763
5999999.9963
6000000.00045
5999999.99936
6000000.00084
5999999.99943
5999999.99949
6000000.00294
5999999.99502
5999999.99522
5999999.99647
6000000.00589
6000000.00011
5999999.99928
6000000.00098
5999999.9996
6000000.00219
5999999.99938
6000000.00156
6000000.00615
5999999.99615
5999999.99489
5999999.99359
6000000.00265
6000000.00247
5999999.9928
5999999.99743
5999999.99671
6000000.00137
5999999.99851
5999999.99404
6000000.00427
6000000.00379
6000000.00006
6000000.00089
5999999.99999
6000000.00024
6000000.00029
6000000.00013
6000000.00001
5999999.99998
5999999.99991
5999999.99988
6000000.00015
6000000.00012
5999999.99904
6000000.00161
6000000.00534
6000000.00014
6000000.00053
6000000.00232
5999999.99924
6000000.00272
6000000.00069
5999999.99971
5999999.99992
5999999.99982
6000000.00156
5999999.99767
5999999.99739
6000000.00125
5999999.99721
6000000.0008
5999999.99914
5999999.99974
5999999.99963
6000000
5999999.99985
6000000.00003
6000000.00006
5999999.9975
6000000.0029
5999999.99887
5999999.99934
5999999.99991
5999999.9972
6000000.00091
6000000.00077
6000000.00004
6000000.00033
5999999.9989
6000000.00326
5999999.99986
6000000.00001
6000000.00052
5999999.99953
6000000.0004
5999999.99814
6000000.00482
6000000.00318
5999999.99611
5999999.99817
6000000.00227
5999999.99805
6000000.00329
5999999.99939
6000000.00001
6000000.00004
5999999.99966
6000000.00012
5999999.9995
6000000.00105
5999999.99751
6000000.00183
6000000.00086
6000000.00075
5999999.99968
6000000.00033
5999999.99708
6000000.00671
6000000.00314
5999999.9947
6000000.0015
6000000.00318
6000000.00424
5999999.99665
5999999.99525
6000000.00301
5999999.99872
5999999.99959
6000000.0001
5999999.99994
5999999.99992
5999999.99998
6000000.00002
5999999.99989
5999999.99993
5999999.99988
6000000.00014
5999999.99878
6000000.00176
5999999.99751
5999999.99949
6000000.00134
5999999.99404
6000000.00472
6000000.00497
6000000.00169
5999999.9991
6000000.00338
6000000.00509
5999999.99749
5999999.99627
6000000.00357
5999999.99962
6000000.00334
6000000.00507
6000000.00056
6000000.00596
6000000.00004
5999999.99976
6000000.00098
6000000.00064
5999999.99988
6000000.00002
6000000.0034
5999999.9986
6000000.00106
6000000.00189
6000000.00316
6000000.00228
5999999.99411
6000000.00134
6000000.00052
6000000.00022
5999999.99918
6000000.00524
6000000.00278
5999999.99817
6000000.00261
6000000.00011
5999999.99978
6000000.00068
5999999.99933
6000000.00185
5999999.99336
6000000.00296
6000000.00171
5999999.99967
5999999.9993
6000000.00002
6000000.00079
6000000.00007
6000000.00002
6000000.00002
6000000
6000000.00001
5999999.99989
6000000.00001
5999999.99981
5999999.99999
6000000.0001
5999999.99934
6000000.0009
5999999.99994
5999999.99979
5999999.99981
6000000.00005
5999999.99876
6000000.00005
6000000.00035
6000000.00069
5999999.99813
5999999.99824
6000000.00099
6000000.00119
5999999.99926
6000000.00081
5999999.99859
6000000.00244
6000000.002
6000000.00054
6000000.00033
5999999.99951
5999999.99881
6000000.00219
5999999.99522
6000000.00673
5999999.99668
5999999.99512
6000000.0043
6000000.00389
6000000.00532
6000000.00004
6000000.00013
5999999.99556
5999999.99488
5999999.99594
6000000.00149
5999999.99765
6000000.00477
5999999.99947
5999999.99788
6000000.00072
5999999.99775
6000000.00142
5999999.99802
6000000.00465
5999999.994
5999999.9963
6000000.00485
5999999.99548
5999999.99691
5999999.99834
6000000.0014
6000000.0013
6000000.00097
6000000.00002
6000000.00099
6000000.00013
6000000.00214
5999999.99609
6000000.0015
6000000.00087
5999999.99991
5999999.99789
5999999.99976
5999999.99968
5999999.99781
5999999.9989
6000000.00102
5999999.99996
6000000.00122
6000000.00183
5999999.99809
5999999.99894
6000000.00386
5999999.9994
5999999.99985
5999999.99998
6000000.00001
6000000.00001
6000000.00014
6000000.00002
5999999.99997
6000000.00042
6000000.00037
5999999.99676
6000000.00045
5999999.99996
5999999.99978
6000000.00003
6000000.00029
5999999.99815
6000000.00293
6000000.00199
5999999.995
6000000.00677
5999999.99385
5999999.99258
6000000.00309
6000000.00567
5999999.99275
5999999.9977
5999999.99769
5999999.99963
6000000.00176
5999999.9983
6000000.00091
5999999.99671
5999999.99737
6000000.00002
5999999.99807
6000000.00249
5999999.99747
6000000.00177
6000000.00313
5999999.99536
5999999.99632
5999999.99509
5999999.99967
6000000.00461
6000000.00169
5999999.99623
5999999.99302
6000000.00408
6000000.00321
5999999.99469
5999999.99877
6000000.00513
6000000.00412
5999999.99747
5999999.99825
6000000.00361
5999999.9998
6000000.00002
6000000.00001
5999999.99997
6000000.00049
6000000.0015
5999999.99862
5999999.99842
5999999.99912
6000000.00005
6000000.00102
5999999.99982
6000000.00041
5999999.99857
5999999.99795
6000000.00132
6000000.00031
6000000.00005
6000000.00002
6000000
5999999.99992
5999999.99996
6000000.00013
5999999.99956
5999999.99864
6000000.00019
6000000.00251
5999999.99792
5999999.99986
5999999.99994
5999999.99553
6000000.00106
6000000.00061
6000000.00348
6000000.0015
5999999.99991
6000000.00086
6000000.00042
5999999.99781
6000000.00325
5999999.99726
6000000.0025
6000000.00127
6000000.00434
5999999.99967
5999999.99964
6000000.00597
6000000.00243
6000000.00275
6000000.00183
5999999.99615
5999999.99901
6000000.00227
6000000.00008
5999999.99734
5999999.99772
6000000.00179
5999999.99701
5999999.99931
5999999.99736
6000000.00025
6000000.00213
5999999.99887
5999999.99887
5999999.9987
5999999.99984
5999999.99977
6000000.00081
6000000.00022
6000000.0003
5999999.99928
6000000.00131
6000000.0015
5999999.99774
6000000.00007
6000000.00011
6000000.00002
6000000.00011
6000000.00005
6000000.00057
6000000.00112
5999999.9984
6000000.00216
6000000.00143
5999999.99676
6000000.00436
5999999.99521
5999999.99894
6000000.00268
6000000.00656
6000000.00311
6000000.00189
6000000.0016
5999999.99335
5999999.9975
5999999.99839
5999999.99946
6000000.00274
6000000.00507
5999999.99364
5999999.99707
5999999.99464
6000000.00593
6000000.0028
6000000.00268
5999999.99896
6000000.00064
6000000.00079
6000000.00155
5999999.99954
5999999.99907
5999999.99974
6000000.00003
5999999.99997
6000000.0007
5999999.9992
6000000.00093
5999999.99947
6000000.00011
5999999.99882
5999999.99606
6000000.00256
6000000.0009
5999999.99582
5999999.99523
6000000.00615
5999999.99798
5999999.99564
6000000.00177
6000000.00644
5999999.99521
6000000.00377
5999999.99902
5999999.99862
6000000.00462
5999999.99954
6000000.00015
5999999.99999
6000000
6000000.00007
6000000.00001
6000000.00007
6000000.00002
6000000.00007
6000000.0002
6000000.00025
6000000.00004
6000000.00005
5999999.99971
6000000.00071
6000000.00155
5999999.99605
6000000.00342
6000000.00516
5999999.99854
6000000.00166
6000000.00166
6000000.00186
5999999.99949
6000000.00042
5999999.99343
6000000.00104
5999999.99921
6000000.00148
6000000.00202
5999999.999
5999999.99872
5999999.99923
5999999.99928
6000000.00019
5999999.99885
6000000.00105
6000000.00211
5999999.99853
5999999.99946
5999999.99926
6000000.00068
6000000.00008
6000000
5999999.99996
5999999.99944
6000000.00055
5999999.99935
5999999.99774
6000000.0032
5999999.99686
6000000.00169
5999999.99922
5999999.9995
5999999.99976
5999999.99929
6000000.00198
5999999.99536
6000000.00204
5999999.99942
5999999.9995
6000000.00002
5999999.99944
5999999.99987
5999999.99986
6000000.00071
5999999.99892
5999999.99929
5999999.99998
5999999.99993
5999999.99992
5999999.99998
6000000.00009
5999999.99993
5999999.9998
6000000
5999999.9999
5999999.9999
6000000.00001
5999999.99976
6000000.00097
5999999.99984
6000000.00013
6000000.00014
6000000.00112
5999999.99849
6000000.00183
5999999.99691
6000000.00206
6000000.00129
6000000.00194
6000000.00247
5999999.99686
5999999.9995
5999999.99836
6000000.00192
5999999.99912
5999999.99769
6000000.00104
5999999.99872
5999999.99934
5999999.99978
6000000.00029
6000000.00375
6000000.00137
6000000.00332
5999999.9989
6000000.0003
6000000.0021
5999999.99531
6000000.00121
5999999.99673
6000000.00446
6000000.00237
5999999.99479
5999999.99517
5999999.9953
6000000.00539
6000000.00195
6000000.00591
5999999.99695
5999999.99743
6000000.0009
5999999.99457
5999999.99499
5999999.99733
5999999.99809
6000000.00167
5999999.99573
5999999.99737
5999999.99278
5999999.99988
5999999.9951
5999999.99778
5999999.99703
5999999.99694
5999999.99631
5999999.99527
6000000.00372
6000000.00088
6000000.00096
5999999.99545
6000000.00162
6000000.00005
5999999.99976
6000000.00054
5999999.99926
6000000
5999999.99664
6000000.00364
5999999.99433
5999999.9945
6000000.00179
5999999.99468
5999999.99508
6000000.00616
5999999.99524
5999999.99398
6000000.00077
6000000.00166
5999999.99975
6000000.00078
6000000.00017
6000000.00008
5999999.99993
6000000.00051
5999999.99952
6000000.00045
5999999.99972
6000000.00016
6000000.0001
5999999.99992
5999999.99993
6000000.00003
6000000.00084
5999999.9993
5999999.99951
6000000.00127
5999999.99992
5999999.99993
5999999.99981
5999999.99957
5999999.99903
6000000.00027
6000000.00002
5999999.99993
5999999.99994
5999999.99956
6000000.00038
6000000.00157
5999999.99902
6000000.00097
6000000.00222
6000000.00241
5999999.99679
5999999.99786
6000000.00252
5999999.99962
6000000.0008
6000000.00055
5999999.9974
6000000.00238
6000000.00186
6000000.00028
5999999.99866
6000000.00008
5999999.99802
6000000.00269
6000000.00041
6000000.00117
5999999.99899
5999999.99822
6000000.00515
6000000.00524
5999999.99281
5999999.99711
6000000.0019
6000000.00152
5999999.99881
6000000.00127
6000000.00001
6000000.00298
5999999.99906
6000000.00167
5999999.9997
5999999.99978
6000000
6000000.00004
5999999.99997
5999999.99998
5999999.99998
6000000.00001
6000000.00004
6000000.00014
6000000
6000000
6000000.00001
5999999.99999
6000000.00016
5999999.99999
6000000.00001
5999999.99993
5999999.99996
6000000.00014
6000000.00013
5999999.99995
6000000.00014
5999999.99999
6000000
5999999.9999
6000000.00016
5999999.99995
6000000.00013
5999999.99984
5999999.99954
5999999.99946
6000000
5999999.99999
6000000.00209
5999999.99935
5999999.99973
5999999.99989
6000000.0001
6000000.00003
6000000.0001
5999999.99993
6000000.00001
6000000
5999999.99998
5999999.99936
6000000.00056
5999999.99888
6000000.00269
5999999.99979
5999999.99886
6000000.0015
5999999.99875
6000000.003
6000000.00383
5999999.99906
5999999.99971
6000000.00632
6000000.00088
6000000.00069
6000000.0006
5999999.99976
6000000.00004
6000000.00007
6000000.00026
6000000.00007
6000000.00007
6000000.00012
5999999.99949
6000000.00075
6000000.00032
6000000.00023
6000000.00018
5999999.99989
6000000.00002
5999999.99992
6000000.00002
5999999.99999
6000000.00071
5999999.99841
5999999.99766
6000000.00296
5999999.99788
6000000.00286
5999999.9972
5999999.99919
5999999.99999
5999999.9974
5999999.99936
6000000.00308
5999999.9958
5999999.99438
6000000.00093
5999999.99409
5999999.99332
6000000.00141
5999999.99721
5999999.99926
5999999.9961
6000000.002
6000000.00183
5999999.99736
6000000.00388
5999999.99807
5999999.99813
6000000.002
6000000.00181
6000000.00013
5999999.99954
5999999.99981
6000000.00003
5999999.99993
5999999.9997
6000000.00121
5999999.99952
6000000.00154
5999999.99861
5999999.99852
6000000.00024
5999999.99892
5999999.99944
5999999.99817
5999999.99895
5999999.99897
5999999.99994
5999999.99895
6000000.00359
5999999.99948
5999999.9987
5999999.99974
5999999.99998
5999999.99996
5999999.99983
5999999.99984
6000000.00022
5999999.99998
5999999.99996
6000000.00014
6000000.00009
5999999.99998
6000000.00007
5999999.99998
6000000.00017
6000000.0001
6000000.00059
5999999.99792
5999999.99887
6000000.00071
6000000.00004
5999999.99998
5999999.99998
6000000.00001
5999999.99989
5999999.99981
6000000.00006
5999999.99992
5999999.99921
6000000.00055
5999999.99944
6000000.00087
5999999.99955
6000000.00004
6000000.00147
5999999.99956
6000000.00012
5999999.99994
6000000.00005
5999999.99991
6000000
5999999.99983
5999999.99991
5999999.99998
5999999.99984
5999999.99899
6000000.00024
5999999.99907
6000000.00258
5999999.9988
6000000.00064
6000000.00024
5999999.99986
6000000.00005
6000000.00085
5999999.99936
5999999.99564
6000000.00279
6000000.00018
6000000.00011
6000000.00038
6000000.00108
6000000.00067
5999999.99808
6000000.00322
6000000.00326
6000000.00021
5999999.99831
6000000.00251
6000000.00173
5999999.9984
6000000.00449
6000000.00036
6000000.00255
5999999.9969
5999999.99771
6000000.0009
5999999.99907
5999999.99993
5999999.99716
6000000.00339
6000000.00065
5999999.9993
6000000.00021
5999999.99844
6000000.00254
5999999.99859
6000000.00164
5999999.99572
6000000.0051
6000000.00418
5999999.99804
6000000.00134
5999999.99362
5999999.99306
6000000.00346
6000000.00268
6000000.00494
5999999.99879
5999999.99613
6000000.00431
5999999.99656
5999999.99861
5999999.99891
5999999.9986
6000000.00061
5999999.99939
6000000.00016
5999999.99971
5999999.99968
6000000.0002
5999999.9981
6000000.00155
5999999.9997
5999999.99934
6000000.00151
5999999.99877
6000000.00096
5999999.9966
6000000.00011
5999999.99998
5999999.99964
5999999.99847
5999999.99846
6000000.00144
6000000.00111
5999999.99945
6000000.00594
6000000.00235
5999999.99554
6000000.00264
5999999.99871
6000000.00588
6000000.00422
5999999.99724
5999999.99572
5999999.99882
6000000.00648
6000000.00202
5999999.9975
5999999.9968
5999999.99532
6000000.00295
5999999.99681
5999999.9951
5999999.99841
5999999.99467
6000000.00411
5999999.99736
5999999.99718
5999999.9988
6000000.0016
5999999.99755
5999999.99803
6000000.00152
6000000.0011
5999999.99697
5999999.99753
5999999.99601
5999999.9962
5999999.99711
5999999.99814
6000000.00053
5999999.994
5999999.99474
6000000.00105
6000000.00017
5999999.99571
5999999.99593
5999999.99516
5999999.99424
6000000.00439
5999999.99744
5999999.99284
5999999.99971
5999999.99561
6000000.00195
6000000.00518
5999999.99254
5999999.99443
5999999.99764
6000000.00554
6000000.00126
5999999.9981
6000000.00348
6000000.00471
5999999.99979
6000000.00609
5999999.99618
5999999.9936
6000000.00369
6000000.00117
5999999.99937
5999999.99465
5999999.99633
6000000.00277
5999999.99598
5999999.99837
6000000.0021
5999999.99897
6000000.00292
6000000.00717
6000000.00328
5999999.99899
5999999.99529
5999999.9972
6000000.00585
6000000.00224
5999999.99561
5999999.99709
6000000.00088
6000000.00628
6000000.001
5999999.99895
5999999.99984
6000000.00201
5999999.99845
5999999.9991
6000000.00398
6000000.00172
5999999.99698
6000000.00268
5999999.99659
5999999.99965
5999999.9974
6000000.00056
6000000.00173
5999999.99404
5999999.99999
6000000.00115
5999999.99414
5999999.99745
6000000.00321
5999999.99815
5999999.99811
6000000.00294
5999999.9984
5999999.99656
5999999.99564
5999999.99826
5999999.99638
5999999.99929
5999999.99791
6000000.00689
5999999.99759
6000000.00042
6000000.00534
5999999.99859
6000000.00199
6000000.00004
6000000.00868
5999999.99705
6000000.00067
6000000.00637
6000000.007
5999999.99889
5999999.99777
6000000.0101
6000000.00791
6000000.00616
5999999.99807
5999999.99785
6000000.00805
6000000.00854
6000000.00179
6000000.00673
6000000.00239
5999999.99482
6000000.00681
6000000.00804
6000000.00013
5999999.99714
6000000.00758
6000000.00263
5999999.9939
6000000.00239
6000000.00215
6000000.00915
6000000.0078
5999999.99759
6000000.00218
6000000.00725
5999999.99618
5999999.99925
6000000.00653
6000000.00934
6000000.00045
6000000.00628
6000000.00563
6000000.00486
5999999.99786
6000000.00109
6000000.00839
6000000.00952
6000000.01019
6000000.00301
6000000.00288
6000000.00642
6000000.01041
5999999.99968
6000000.00286
6000000.0058
5999999.99656
6000000.00574
6000000.00526
6000000.00982
6000000.00421
6000000.00741
6000000.0058
5999999.99349
6000000.00689
6000000.00221
5999999.99839
6000000.0088
5999999.99884
5999999.99985
5999999.99872
6000000.00046
5999999.99826
5999999.99986
5999999.99885
5999999.99954
5999999.99931
5999999.99945
5999999.9974
5999999.99779
5999999.99961
5999999.9982
6000000.00022
5999999.99823
5999999.999
5999999.9982
6000000.00018
5999999.99799
5999999.99735
5999999.99867
5999999.9997
5999999.99873
5999999.99877
5999999.99964
5999999.99759
5999999.99848
5999999.99934
5999999.99574
5999999.99828
6000000.00025
5999999.99933
5999999.99662
5999999.99944
5999999.99752
5999999.99985
5999999.99889
5999999.99874
5999999.99697
5999999.99913
6000000.00006
5999999.99785
5999999.99944
5999999.9997
5999999.99881
5999999.99879
5999999.99922
5999999.99668
5999999.99691
5999999.99947
5999999.99991
6000000.00024
6000000.00056
5999999.99835
5999999.99905
5999999.99795
5999999.99823
5999999.99833
5999999.9987
5999999.99962
6000000.0005
6000000.00212
5999999.99833
5999999.99937
5999999.99943
5999999.99983
5999999.99969
6000000.0007
5999999.99974
5999999.99953
6000000.00032
5999999.99978
5999999.99971
5999999.99972
5999999.99975
6000000.00045
5999999.99999
5999999.99979
5999999.99967
6000000.00027
6000000.00038
5999999.99984
6000000.00026
5999999.99983
6000000.00038
5999999.99989
5999999.99975
6000000.00014
5999999.99991
6000000.00042
5999999.99983
6000000.00004
5999999.99947
6000000.00032
6000000.00039
6000000.00024
6000000.00054
5999999.99988
6000000.00046
6000000.00048
5999999.99971
6000000.00008
5999999.99985
6000000.00034
6000000.00007
5999999.99966
6000000.00043
6000000.00024
6000000.00048
6000000.00029
5999999.99958
5999999.99978
5999999.99975
6000000.00013
6000000.00003
6000000.00034
6000000.00038
5999999.99969
5999999.99997
6000000.00024
5999999.99996
6000000.00034
6000000.00017
6000000.00024
6000000.00043
5999999.99969
6000000.00058
6000000.00066
6000000.00093
6000000.00096
6000000.00106
6000000.00063
6000000.00096
6000000.00081
6000000.00122
6000000.00073
6000000.00078
6000000.00081
6000000.00081
6000000.00077
6000000.00082
6000000.00088
6000000.00096
6000000.00072
6000000.00087
6000000.00104
6000000.00088
6000000.00101
6000000.00114
6000000.00068
6000000.001
6000000.00089
6000000.00084
6000000.00068
6000000.00054
6000000.00092
6000000.00087
6000000.00082
6000000.0009
6000000.00084
6000000.00116
6000000.00069
6000000.00091
6000000.00067
6000000.00083
6000000.00056
6000000.0008
6000000.00095
6000000.00096
6000000.00094
6000000.00087
6000000.00085
6000000.00092
6000000.00079
6000000.00095
6000000.00112
6000000.00113
6000000.00074
6000000.00083
6000000.00079
6000000.00094
6000000.00096
6000000.00091
6000000.00095
6000000.00097
6000000.00097
6000000.00092
6000000.00085
6000000.00115
6000000.00131
6000000.00084
5999999.99904
5999999.99874
5999999.99889
5999999.99902
5999999.99882
5999999.99925
5999999.99886
5999999.99883
5999999.99873
5999999.99876
5999999.9989
5999999.9991
5999999.99906
5999999.99891
5999999.99865
5999999.9988
5999999.99876
5999999.99906
5999999.9989
5999999.99911
5999999.99886
5999999.9988
5999999.99914
5999999.99904
5999999.99882
5999999.99891
5999999.99938
5999999.99882
5999999.99896
5999999.99907
5999999.99901
5999999.99943
5999999.99908
5999999.99911
5999999.99885
5999999.99888
5999999.99912
5999999.99875
5999999.99861
5999999.99871
5999999.99905
5999999.99907
5999999.99885
5999999.99906
5999999.99896
5999999.99898
5999999.99936
5999999.99909
5999999.99883
5999999.99899
5999999.99888
5999999.99869
5999999.99886
5999999.99867
5999999.99896
5999999.99889
5999999.99902
5999999.99902
5999999.99892
5999999.99894
5999999.99886
5999999.99903
5999999.99889
5999999.99885
5999999.99956
5999999.99935
5999999.99944
5999999.99977