/*--------------------------------*- C++ -*----------------------------------*\
  =========                 |
  \\      /  F ield         | OpenFOAM: The Open Source CFD Toolbox
   \\    /   O peration     | Website:  https://openfoam.org
    \\  /    A nd           | Version:  6
     \\/     M anipulation  |
\*---------------------------------------------------------------------------*/
FoamFile
{
    version     2.0;
    format      ascii;
    class       volScalarField;
    location    "4.46e-05";
    object      p;
}
// * * * * * * * * * * * * * * * * * * * * * * * * * * * * * * * * * * * * * //

dimensions      [1 -1 -2 0 0 0 0];

internalField   nonuniform List<scalar> 
8192
(
6000000.00043
5999999.99934
6000000.00057
6000000.00052
6000000.00375
5999999.9974
6000000.00115
6000000.00013
6000000.00005
5999999.99987
6000000.00023
5999999.99992
6000000.00067
6000000.00148
6000000.00095
6000000.00042
6000000.00068
5999999.99886
5999999.99914
6000000.00073
5999999.9987
5999999.9973
6000000.00176
5999999.99998
5999999.99964
6000000.00008
5999999.99899
5999999.99936
5999999.99827
5999999.99963
6000000.00003
6000000.00029
5999999.99674
5999999.99354
6000000.00773
6000000.00774
5999999.99901
6000000.00474
5999999.9991
5999999.99775
6000000.00224
5999999.99847
5999999.99982
5999999.99994
6000000.00023
6000000.00015
6000000.00001
6000000.00028
5999999.9992
6000000.00113
5999999.9977
6000000.00026
6000000.00273
5999999.99656
5999999.99744
6000000.0016
6000000.00019
6000000.00285
5999999.99961
6000000.0048
5999999.997
5999999.99764
5999999.99729
6000000.00149
6000000.00023
6000000.00159
5999999.99944
6000000.00346
5999999.99645
6000000.0027
5999999.99895
5999999.99765
6000000.00246
6000000.00285
6000000.00687
5999999.99676
5999999.99407
6000000.00654
6000000.00258
5999999.99574
5999999.99543
5999999.99317
6000000.00314
6000000.00587
6000000.00008
5999999.99896
6000000.00647
6000000.00485
5999999.9981
5999999.99721
5999999.99901
5999999.99862
5999999.99731
6000000.0034
5999999.99738
6000000.00151
6000000.0016
5999999.99976
6000000.00385
5999999.99827
5999999.99983
5999999.99988
5999999.9997
6000000.00003
5999999.99932
6000000.00029
6000000.00011
6000000
5999999.99998
5999999.99998
6000000.00003
6000000.00009
5999999.99967
6000000.00052
5999999.99983
6000000.00098
6000000.00017
5999999.99912
6000000.00086
5999999.99951
5999999.99928
5999999.99909
6000000.00002
5999999.99975
6000000.00017
5999999.99972
6000000.00032
6000000.00046
6000000.00531
6000000.00054
5999999.9983
6000000.00063
5999999.99919
5999999.99933
6000000.00002
5999999.99994
6000000.00018
6000000.00104
5999999.99849
6000000.00382
6000000.00088
6000000.00329
6000000.00463
5999999.99719
5999999.99627
5999999.99803
6000000.00229
6000000.00237
6000000.00012
5999999.99987
5999999.99883
6000000.00084
5999999.99536
6000000.00124
5999999.99645
5999999.99643
6000000.00113
6000000.00027
5999999.99891
5999999.9992
5999999.99984
5999999.99979
6000000.0003
6000000.00057
5999999.99971
6000000.00245
6000000.00021
6000000.00078
5999999.99865
6000000.00042
5999999.99799
6000000.00303
6000000.00228
6000000.0029
6000000.00194
6000000.00437
6000000.00217
6000000.00106
5999999.99438
6000000.00236
6000000.00133
5999999.99856
6000000.00076
5999999.99829
6000000.00252
6000000.00119
6000000.00219
5999999.99463
5999999.99229
6000000.00184
6000000.00641
6000000.00421
5999999.99948
5999999.99985
6000000.00029
6000000.00004
5999999.99992
6000000.00001
5999999.99997
6000000.00001
6000000.00015
6000000.00001
6000000.00014
5999999.99811
5999999.998
6000000.00242
5999999.99929
6000000.00001
6000000.00003
5999999.99998
6000000.00006
6000000.00017
6000000.00015
5999999.99946
5999999.99994
6000000.00003
5999999.99985
5999999.99998
5999999.99991
5999999.99692
6000000.00018
6000000.00139
5999999.99741
6000000.00087
6000000.00705
5999999.99396
5999999.9967
6000000.00543
6000000.00871
5999999.9917
5999999.99619
6000000.0018
6000000.00369
5999999.99612
6000000.00294
5999999.99999
6000000.00416
5999999.99813
6000000.00723
6000000.0037
5999999.99246
6000000.00024
6000000.00542
5999999.99788
6000000.00498
5999999.99487
5999999.99896
6000000.00177
6000000.00256
6000000.0031
6000000.00065
6000000.00202
6000000.00055
5999999.99896
5999999.99945
5999999.99924
5999999.99978
5999999.99895
6000000.00035
5999999.99821
6000000.00266
5999999.99874
5999999.99981
5999999.99947
5999999.99988
5999999.99992
6000000.00001
6000000.00077
6000000.0014
5999999.9974
6000000.00047
6000000.00039
6000000.00018
6000000.00221
5999999.99567
5999999.99744
6000000.00556
6000000.00162
5999999.99614
5999999.99548
5999999.99904
5999999.99534
5999999.99836
5999999.99496
6000000.00125
6000000.00423
5999999.99676
6000000.00058
5999999.9991
6000000.0014
5999999.9998
5999999.9993
6000000.0017
5999999.99758
6000000.00117
5999999.99997
6000000
6000000.00016
6000000.00001
6000000.00001
6000000.00002
6000000.00022
5999999.99895
6000000.00172
5999999.99749
5999999.9997
5999999.99901
6000000.00093
6000000.00441
5999999.99817
5999999.99469
6000000.00232
6000000.00518
5999999.99824
6000000.00341
5999999.99833
6000000.0057
5999999.99713
5999999.99728
5999999.99673
6000000.00212
6000000.00154
5999999.99662
6000000.00173
6000000.00063
6000000.0007
6000000.00059
5999999.99957
6000000
6000000.0002
5999999.99877
6000000.00281
6000000.00246
6000000.00098
6000000.00029
5999999.99969
5999999.99769
5999999.99793
6000000.00051
6000000.00057
5999999.99994
5999999.9989
5999999.99834
6000000.00096
5999999.99715
6000000.00071
5999999.99717
5999999.99438
5999999.99635
6000000.00288
5999999.99767
5999999.99616
6000000.00733
5999999.99876
6000000.00317
6000000.00026
5999999.99764
6000000.00391
5999999.99654
6000000.00313
5999999.9997
5999999.99961
6000000.00029
6000000.00001
6000000.00024
6000000.00009
6000000.00021
6000000.00172
5999999.99853
6000000.00273
6000000.00072
5999999.99833
6000000.00159
5999999.99979
5999999.99979
6000000.00406
5999999.99883
6000000.00304
6000000.00329
5999999.99352
5999999.99356
5999999.99585
5999999.99877
6000000.00066
6000000.00144
6000000.0018
5999999.99541
5999999.9917
6000000.00168
5999999.99689
5999999.9986
6000000.00493
5999999.99856
5999999.99888
6000000.00151
5999999.99726
5999999.99791
6000000.00654
5999999.99602
5999999.99873
5999999.99372
6000000.00116
6000000.00537
6000000.00009
5999999.99795
5999999.99181
6000000.00317
5999999.99976
6000000.00365
5999999.99819
5999999.99704
6000000.00249
5999999.99527
5999999.99466
6000000.00011
6000000.00305
5999999.99819
5999999.99791
5999999.99762
6000000.00187
6000000.00212
5999999.99847
6000000.00136
5999999.99887
5999999.99951
6000000.00061
5999999.99988
5999999.99998
6000000.00005
5999999.99977
6000000.00093
5999999.99687
6000000.00072
6000000.0001
5999999.99958
5999999.99767
6000000.0012
6000000.00066
5999999.99903
6000000.00068
6000000.00107
5999999.9983
5999999.99909
6000000.00025
5999999.99946
5999999.99782
5999999.99712
5999999.99873
5999999.99661
6000000.00161
6000000.00171
6000000.00067
6000000.00021
5999999.99952
6000000.00187
5999999.99828
6000000.0028
6000000.00206
5999999.99513
6000000.00433
6000000.00159
6000000.00047
6000000.00098
5999999.99871
6000000.0021
5999999.99938
5999999.99942
6000000.00032
6000000.00008
5999999.99979
5999999.99807
6000000.00265
5999999.9976
5999999.99961
6000000.00112
5999999.99757
6000000.00268
5999999.99745
6000000.00148
5999999.99934
5999999.99991
5999999.99831
6000000.00265
6000000.00639
5999999.99805
5999999.99825
6000000.00043
6000000.00253
5999999.99887
5999999.99821
6000000.00403
5999999.99863
5999999.99994
5999999.99989
6000000.00059
6000000.00252
5999999.998
6000000.00356
5999999.99867
5999999.99873
6000000.00173
5999999.99976
5999999.99981
6000000.00267
6000000.00116
6000000.00209
5999999.99942
5999999.99875
5999999.9994
5999999.99674
5999999.99574
6000000.00205
6000000.00047
5999999.99868
5999999.99969
5999999.99923
5999999.99999
5999999.9989
6000000.00025
5999999.99949
6000000.00008
6000000.00028
6000000.00002
6000000.00003
5999999.9996
6000000.0002
6000000.00002
5999999.9999
5999999.99989
5999999.99985
6000000.00007
6000000.0001
5999999.99989
5999999.99989
5999999.99982
6000000.00002
5999999.99984
5999999.99992
5999999.99984
5999999.99989
6000000.00001
6000000
5999999.99984
5999999.99998
6000000.00001
6000000.0001
5999999.99863
6000000.00268
5999999.99827
5999999.99946
5999999.99957
5999999.99957
6000000.00003
5999999.99998
6000000.00001
6000000.00004
6000000.00029
6000000.00015
6000000.00002
6000000.00003
5999999.99975
5999999.99769
6000000.00258
6000000.00161
5999999.99928
5999999.99405
5999999.99239
6000000.00195
6000000.00457
6000000.00156
6000000.00407
5999999.99676
6000000.00454
5999999.99402
6000000.0006
5999999.99675
6000000.00048
6000000.00038
6000000.0018
5999999.99937
6000000.00159
5999999.99723
6000000.0008
6000000.00019
6000000.00004
6000000.00021
6000000.00011
5999999.99985
5999999.99921
6000000.00172
5999999.99987
6000000.00001
6000000.00002
5999999.99992
5999999.99993
6000000.00003
6000000.00018
5999999.99961
5999999.9992
5999999.99913
5999999.99875
5999999.99981
5999999.999
5999999.99799
6000000.00107
6000000.00074
6000000.00061
6000000.0018
5999999.99791
5999999.99707
6000000.00774
6000000.00352
6000000.00081
6000000.00353
5999999.99752
5999999.99933
6000000.00011
5999999.9998
6000000.00016
6000000.00007
6000000.00042
5999999.99988
6000000.00179
5999999.99914
5999999.99925
5999999.99989
5999999.9997
6000000.00038
6000000.0041
6000000.00012
5999999.99758
6000000.00312
6000000.00195
6000000.00102
6000000.00091
5999999.99747
5999999.9986
6000000.00478
6000000.00406
6000000.00289
5999999.99819
5999999.99785
6000000.00234
5999999.99973
5999999.99856
5999999.99798
6000000.00263
6000000.00178
6000000.00032
6000000.00114
5999999.99894
6000000.00069
5999999.99961
6000000.00057
6000000.00053
6000000.00051
6000000.00058
5999999.99948
5999999.99902
6000000.00177
6000000.00139
5999999.99405
5999999.99525
6000000.00358
6000000.00142
6000000.00016
5999999.99844
6000000.00236
5999999.99777
6000000.00085
6000000.00148
6000000.00231
5999999.99426
6000000.003
6000000.00184
6000000.00533
5999999.99502
5999999.99748
6000000.00146
6000000.00123
5999999.99439
5999999.99868
6000000.00281
6000000.00563
5999999.99892
6000000.00187
6000000.00142
6000000.00471
5999999.9971
6000000.0011
6000000.00169
5999999.99609
6000000.00329
6000000.00326
6000000.0057
6000000.00886
5999999.99506
5999999.9977
6000000.00413
6000000.00575
5999999.99399
5999999.99434
6000000.0023
5999999.9976
6000000.00001
6000000.00028
5999999.99748
6000000.00265
5999999.99792
6000000.00156
5999999.99717
5999999.99579
6000000.0027
6000000.00361
5999999.99925
6000000.0036
6000000.00167
6000000.00066
5999999.99946
6000000.0001
5999999.99863
6000000.00393
6000000.00778
5999999.99641
5999999.99888
5999999.99196
6000000.00537
6000000.00598
5999999.9959
5999999.99671
5999999.99626
5999999.99769
5999999.99616
6000000.00019
5999999.99935
6000000.0002
5999999.99979
5999999.99953
6000000.00252
5999999.99557
5999999.99592
5999999.99665
6000000.00518
5999999.99994
5999999.99972
6000000.0009
5999999.99948
6000000.00188
5999999.99935
6000000.00154
6000000.00618
5999999.99615
5999999.99496
5999999.99416
6000000.00246
6000000.00244
5999999.99355
5999999.99788
5999999.9967
6000000.00138
5999999.99851
5999999.99442
6000000.00386
6000000.00325
6000000.00001
6000000.00088
5999999.99997
6000000.00018
6000000.00006
6000000.00006
6000000.00001
5999999.99998
5999999.99992
5999999.99989
6000000.00015
6000000.0001
5999999.99934
6000000.00113
6000000.00468
6000000.00031
6000000.00024
6000000.00196
5999999.99935
6000000.00242
6000000.00034
5999999.99968
5999999.99993
5999999.99997
6000000.0016
5999999.99779
5999999.99768
6000000.00144
5999999.99794
6000000.00057
5999999.99961
5999999.99991
5999999.99978
6000000.00001
5999999.99985
6000000.00004
5999999.99984
5999999.99734
6000000.0026
5999999.99913
5999999.99946
6000000.00004
5999999.99689
6000000.00067
6000000.00061
6000000.00004
6000000.00023
5999999.99905
6000000.00292
5999999.99997
5999999.99996
6000000.00054
5999999.99967
6000000.00043
5999999.99835
6000000.00425
6000000.00293
5999999.99699
5999999.99812
6000000.00217
5999999.99803
6000000.00284
5999999.99967
6000000.00001
5999999.99996
5999999.99978
6000000.00004
5999999.99981
6000000.00112
5999999.99777
6000000.00169
6000000.00079
6000000.00053
5999999.9996
6000000.00047
5999999.99735
6000000.00566
6000000.00296
5999999.99537
6000000.00158
6000000.0033
6000000.00406
5999999.99686
5999999.99601
6000000.00251
5999999.9988
5999999.99974
6000000.00008
5999999.99995
5999999.99992
5999999.99998
6000000.00002
5999999.9999
5999999.99993
5999999.9999
6000000.00003
5999999.99903
6000000.0015
5999999.99777
5999999.99943
6000000.00152
5999999.99468
6000000.00439
6000000.00419
6000000.00178
5999999.99908
6000000.00341
6000000.00484
5999999.99789
5999999.99683
6000000.00385
5999999.9998
6000000.00329
6000000.00466
6000000.00058
6000000.00598
6000000.00002
5999999.9998
6000000.00104
6000000.00088
5999999.99992
5999999.99998
6000000.00338
5999999.99911
6000000.00123
6000000.00192
6000000.00336
6000000.00181
5999999.99486
6000000.001
6000000.0004
5999999.99986
5999999.99929
6000000.00463
6000000.00237
5999999.99853
6000000.00238
5999999.9998
5999999.9998
6000000.00068
5999999.99932
6000000.00155
5999999.99326
6000000.00283
6000000.00205
5999999.99942
5999999.99971
6000000.00024
6000000.00036
6000000.00031
6000000.00004
6000000.00002
6000000.00001
6000000.00001
5999999.99989
6000000.00001
5999999.99984
6000000.00001
6000000.00002
5999999.99972
6000000.00035
5999999.99996
5999999.99984
5999999.99991
6000000.00001
5999999.99929
5999999.99982
6000000.0003
6000000.00071
5999999.99814
5999999.99834
6000000.00083
6000000.00085
5999999.99978
6000000.00029
5999999.99889
6000000.00225
6000000.00164
6000000.00064
6000000.00034
5999999.99951
5999999.99873
6000000.00217
5999999.99516
6000000.00671
5999999.99663
5999999.99557
6000000.00449
6000000.00324
6000000.00546
6000000.00008
6000000.00022
5999999.9961
5999999.99524
5999999.9963
6000000.00117
5999999.99768
6000000.00407
5999999.99975
5999999.99819
6000000.00071
5999999.99792
6000000.00104
5999999.99807
6000000.00423
5999999.99478
5999999.99676
6000000.00509
5999999.99586
5999999.99689
5999999.99845
6000000.00106
6000000.00109
6000000.00082
6000000.00002
6000000.00089
5999999.99985
6000000.00189
5999999.99587
6000000.00105
6000000.00067
5999999.99995
5999999.99771
5999999.99956
5999999.99979
5999999.99756
5999999.99899
6000000.00082
5999999.99995
6000000.00094
6000000.00175
5999999.99852
5999999.99891
6000000.00337
5999999.99929
5999999.99986
5999999.99998
6000000.00001
6000000.00001
6000000.00013
6000000.00002
6000000
6000000.00017
6000000.00038
5999999.9973
6000000.00019
5999999.99995
5999999.99994
6000000.00002
6000000.00058
5999999.99822
6000000.00267
6000000.0017
5999999.99497
6000000.00683
5999999.99382
5999999.99245
6000000.0034
6000000.005
5999999.99355
5999999.99784
5999999.99805
5999999.99978
6000000.00151
5999999.99862
6000000.00124
5999999.99715
5999999.9979
5999999.9997
5999999.99841
6000000.00188
5999999.99754
6000000.00196
6000000.00317
5999999.99537
5999999.9969
5999999.99561
5999999.99971
6000000.00473
6000000.00157
5999999.99631
5999999.99299
6000000.00395
6000000.00344
5999999.99459
5999999.99864
6000000.00453
6000000.00398
5999999.99736
5999999.9985
6000000.00304
5999999.99999
6000000.00002
6000000.00001
6000000
6000000.00023
6000000.00156
5999999.99875
5999999.99865
5999999.99935
5999999.99984
6000000.00046
6000000.00007
6000000.00023
5999999.99873
5999999.99797
6000000.00112
6000000.00013
6000000.00003
6000000.00002
6000000.00001
5999999.99977
5999999.99995
6000000.00007
5999999.99989
5999999.9987
6000000.00022
6000000.00255
5999999.99786
6000000.00014
5999999.99996
5999999.99588
6000000.00127
6000000.00063
6000000.00292
6000000.00131
6000000.00026
6000000.00036
6000000.00047
5999999.99777
6000000.00349
5999999.99766
6000000.00209
6000000.0016
6000000.0042
5999999.99971
5999999.99959
6000000.006
6000000.00242
6000000.0023
6000000.00168
5999999.99602
5999999.99913
6000000.00187
6000000.00022
5999999.99761
5999999.99801
6000000.00125
5999999.99677
5999999.99944
5999999.99764
6000000.00021
6000000.00214
5999999.99926
5999999.99901
5999999.99883
5999999.99985
5999999.9998
6000000.00035
6000000.00007
6000000.00016
5999999.99954
6000000.00111
6000000.00135
5999999.99735
6000000
6000000.00009
6000000.00002
6000000.00009
6000000.00004
6000000.00026
6000000.00109
5999999.99875
6000000.00176
6000000.00124
5999999.99713
6000000.00411
5999999.99482
5999999.9994
6000000.00266
6000000.00658
6000000.00314
6000000.00154
6000000.00162
5999999.99395
5999999.99772
5999999.9983
5999999.99975
6000000.00213
6000000.00517
5999999.99398
5999999.9971
5999999.99459
6000000.00591
6000000.0028
6000000.00246
5999999.99914
6000000.00042
6000000.00081
6000000.00133
5999999.99961
5999999.99908
5999999.99983
6000000.00002
6000000
6000000.00053
5999999.99922
6000000.00096
5999999.99922
6000000.00032
5999999.99886
5999999.99569
6000000.0018
6000000.0008
5999999.99578
5999999.99546
6000000.00545
5999999.99772
5999999.99566
6000000.00181
6000000.00646
5999999.99519
6000000.00354
5999999.999
5999999.99898
6000000.00394
5999999.99983
6000000.00013
6000000
6000000.00001
6000000.00004
6000000.00001
6000000.00004
6000000.00002
6000000.00007
6000000.00019
6000000.00022
6000000.00004
6000000.00002
5999999.99985
6000000.00043
6000000.00168
5999999.99651
6000000.00355
6000000.00519
5999999.99867
6000000.00169
6000000.00118
6000000.00147
5999999.99952
6000000.00045
5999999.99407
6000000.00091
5999999.99918
6000000.00152
6000000.00139
5999999.99891
5999999.99871
5999999.99936
5999999.9995
6000000.00012
5999999.9991
6000000.00098
6000000.00236
5999999.99869
5999999.99948
5999999.9995
6000000.0003
6000000.00004
6000000.00001
5999999.99995
5999999.99947
6000000.00048
5999999.99954
5999999.99756
6000000.00293
5999999.99707
6000000.00187
5999999.99939
5999999.99959
5999999.99985
5999999.99926
6000000.0022
5999999.99536
6000000.00205
5999999.99964
5999999.9997
6000000.00002
5999999.99951
5999999.99993
5999999.99992
6000000.00047
5999999.99922
5999999.99913
6000000.00004
5999999.99993
5999999.99992
5999999.99999
6000000.00009
5999999.99993
5999999.99988
6000000.00001
5999999.99993
5999999.99994
6000000.00001
5999999.99994
6000000.00038
5999999.99999
6000000.00013
6000000.00013
6000000.001
5999999.9989
6000000.00198
5999999.9972
6000000.0016
6000000.00113
6000000.00213
6000000.00252
5999999.99715
5999999.99963
5999999.99841
6000000.0015
5999999.99913
5999999.99804
6000000.00065
5999999.99876
5999999.99942
5999999.99987
6000000.00036
6000000.00337
6000000.0011
6000000.00322
5999999.99898
6000000.00027
6000000.00189
5999999.99565
6000000.0014
5999999.99687
6000000.00401
6000000.00272
5999999.99509
5999999.99595
5999999.99556
6000000.00508
6000000.00199
6000000.00594
5999999.99695
5999999.99716
6000000.00097
5999999.99425
5999999.99536
5999999.99749
5999999.99824
6000000.00101
5999999.99627
5999999.99766
5999999.99266
5999999.99956
5999999.99512
5999999.99769
5999999.99699
5999999.99696
5999999.99682
5999999.9955
6000000.00336
6000000.00057
6000000.00077
5999999.99621
6000000.00108
5999999.99994
5999999.99976
6000000.00024
5999999.99965
5999999.99977
5999999.99681
6000000.00409
5999999.99408
5999999.99426
6000000.00135
5999999.99511
5999999.99499
6000000.00618
5999999.99526
5999999.99396
6000000.00063
6000000.00161
5999999.99994
6000000.00031
6000000.00003
6000000.00003
5999999.99992
6000000.00042
5999999.99959
6000000.00042
6000000.00017
6000000.0001
6000000.00004
5999999.99992
5999999.99993
6000000.00007
6000000.00066
5999999.99904
5999999.99949
6000000.00127
5999999.9998
5999999.99994
5999999.99984
5999999.99956
5999999.99918
6000000.00029
6000000.00003
5999999.99947
5999999.99991
5999999.99957
6000000.00009
6000000.00124
5999999.99944
6000000.0009
6000000.00188
6000000.00232
5999999.99736
5999999.99813
6000000.00221
5999999.99979
6000000.00031
6000000.00053
5999999.99781
6000000.00211
6000000.0015
6000000.00034
5999999.99917
6000000.00005
5999999.99775
6000000.00219
6000000.00046
6000000.0012
5999999.99915
5999999.99851
6000000.0045
6000000.00492
5999999.99281
5999999.99707
6000000.00214
6000000.00151
5999999.99881
6000000.00124
6000000.00026
6000000.00269
5999999.99892
6000000.00121
5999999.9999
5999999.99992
6000000.00001
6000000.00004
5999999.99996
5999999.99998
5999999.99998
6000000.00001
6000000.00004
6000000.00013
6000000.00001
6000000.00001
6000000.00001
5999999.99999
6000000.00016
6000000
6000000.00001
5999999.99993
5999999.99994
6000000.00013
6000000.00002
5999999.99995
6000000.00013
6000000.00001
6000000.00001
5999999.99991
6000000.00004
5999999.99995
6000000.00002
6000000.00015
5999999.99959
5999999.99954
5999999.99975
6000000.0002
6000000.00179
5999999.99919
5999999.9998
5999999.99992
6000000.00006
6000000.00001
6000000.00009
5999999.99993
6000000.00001
6000000.00001
5999999.99995
5999999.99952
6000000.00045
5999999.9988
6000000.00224
6000000.00012
5999999.99912
6000000.00149
5999999.99863
6000000.00258
6000000.00403
5999999.99919
5999999.99963
6000000.00635
6000000.0011
6000000.00054
6000000.0004
5999999.99983
6000000.00004
6000000.00006
6000000.00021
6000000.00004
6000000.00003
6000000.00007
5999999.9997
6000000.00029
6000000.00015
6000000.00022
6000000.00012
5999999.99989
6000000.00002
5999999.99992
6000000.00002
6000000.00002
6000000.00052
5999999.9983
5999999.99799
6000000.0032
5999999.99792
6000000.00294
5999999.99766
5999999.99917
6000000.00012
5999999.99776
5999999.99922
6000000.0026
5999999.99627
5999999.99438
6000000.00046
5999999.99437
5999999.9931
6000000.00156
5999999.99721
5999999.99939
5999999.99627
6000000.00186
6000000.00158
5999999.99775
6000000.00331
5999999.99825
5999999.99849
6000000.00156
6000000.00149
6000000.00028
5999999.99957
5999999.9999
6000000.00004
5999999.99992
5999999.9999
6000000.00063
5999999.99964
6000000.00119
5999999.99877
5999999.99873
6000000.00029
5999999.99891
5999999.99954
5999999.99811
5999999.99903
5999999.99909
5999999.99995
5999999.99909
6000000.00311
5999999.99931
5999999.99923
5999999.99958
5999999.99998
5999999.99996
5999999.99989
5999999.99984
6000000.00016
5999999.99998
5999999.99996
6000000.00009
6000000.00001
5999999.99998
6000000.00003
5999999.99998
6000000.00012
5999999.9998
6000000.00073
5999999.99787
5999999.99931
6000000.0003
6000000
5999999.99998
5999999.99998
5999999.99999
5999999.99989
5999999.99985
5999999.99998
5999999.99991
5999999.99931
6000000.0005
5999999.99959
6000000.00059
5999999.9999
5999999.99985
6000000.00134
5999999.99958
5999999.9998
5999999.99994
6000000.00006
5999999.99991
5999999.99998
5999999.99989
5999999.99991
5999999.99998
5999999.99987
5999999.99923
6000000.00024
5999999.99906
6000000.00287
5999999.99934
6000000.00029
6000000.00008
5999999.99985
5999999.99979
6000000.00062
5999999.99947
5999999.99549
6000000.00275
6000000.00009
6000000.00011
6000000.00009
6000000.00063
6000000.0007
5999999.99842
6000000.0027
6000000.00339
6000000.00047
5999999.99852
6000000.00268
6000000.00178
5999999.99816
6000000.0038
6000000.00043
6000000.00251
5999999.99687
5999999.99784
6000000.00061
5999999.99908
6000000.00005
5999999.99735
6000000.00305
6000000.00054
5999999.99965
6000000.00012
5999999.99841
6000000.00206
5999999.99881
6000000.00168
5999999.99626
6000000.00432
6000000.00393
5999999.998
6000000.00155
5999999.99386
5999999.99351
6000000.00355
6000000.00284
6000000.0053
5999999.99862
5999999.99665
6000000.00463
5999999.99674
5999999.99845
5999999.9989
5999999.99889
6000000.00023
5999999.99943
6000000.0001
5999999.99971
5999999.99977
6000000.00007
5999999.99837
6000000.00134
5999999.99974
5999999.99965
6000000.00089
5999999.99923
6000000.00082
5999999.9969
5999999.99994
5999999.99999
5999999.99964
5999999.99886
5999999.99841
6000000.00167
6000000.00072
5999999.99959
6000000.00538
6000000.00238
5999999.99635
6000000.00248
5999999.9987
6000000.00524
6000000.00352
5999999.99704
5999999.99594
5999999.99877
6000000.00653
6000000.002
5999999.99764
5999999.99717
5999999.99539
6000000.00297
5999999.99687
5999999.99538
5999999.99888
5999999.99469
6000000.00413
5999999.99741
5999999.99719
5999999.99887
6000000.00147
5999999.99744
5999999.99839
6000000.00159
6000000.00104
5999999.99735
5999999.99742
5999999.99648
5999999.99645
5999999.99691
5999999.99786
6000000.00025
5999999.99481
5999999.99446
6000000.00051
5999999.99975
5999999.99597
5999999.99618
5999999.99526
5999999.99451
6000000.0047
5999999.99781
5999999.99363
5999999.99963
5999999.99547
6000000.00186
6000000.00497
5999999.99253
5999999.99431
5999999.99759
6000000.00502
6000000.00149
5999999.99849
6000000.00339
6000000.00417
5999999.99985
6000000.00612
5999999.9962
5999999.99355
6000000.00373
6000000.00151
5999999.99963
5999999.99456
5999999.99642
6000000.00277
5999999.99619
5999999.99864
6000000.00207
5999999.99893
6000000.0029
6000000.00717
6000000.00337
5999999.99948
5999999.99521
5999999.99718
6000000.00587
6000000.00226
5999999.99558
5999999.99708
6000000.00084
6000000.00632
6000000.00103
5999999.99892
5999999.99983
6000000.00211
5999999.99858
5999999.99911
6000000.00409
6000000.00224
5999999.99693
6000000.00264
5999999.99659
5999999.99963
5999999.99737
6000000.00099
6000000.00163
5999999.99398
5999999.99997
6000000.00108
5999999.9941
5999999.99777
6000000.00325
5999999.99815
5999999.99812
6000000.00296
5999999.99876
5999999.99659
5999999.99608
5999999.99857
5999999.99679
5999999.9993
5999999.99783
6000000.0069
5999999.99757
6000000.00089
6000000.00534
5999999.99861
6000000.00195
6000000.00009
6000000.00878
5999999.99705
6000000.00055
6000000.00643
6000000.00709
5999999.99885
5999999.99762
6000000.01013
6000000.00797
6000000.0062
5999999.99811
5999999.99778
6000000.00804
6000000.00866
6000000.00175
6000000.00676
6000000.00241
5999999.99476
6000000.00678
6000000.00818
6000000.0001
5999999.99708
6000000.00765
6000000.00268
5999999.99383
6000000.00236
6000000.00221
6000000.00909
6000000.0079
5999999.99755
6000000.00212
6000000.00738
5999999.99624
5999999.99908
6000000.00656
6000000.00944
6000000.0004
6000000.00626
6000000.00579
6000000.00486
5999999.99806
6000000.00104
6000000.00847
6000000.00952
6000000.01026
6000000.00305
6000000.00284
6000000.00642
6000000.01053
5999999.99968
6000000.00272
6000000.00584
5999999.99652
6000000.00561
6000000.00532
6000000.00981
6000000.00421
6000000.00748
6000000.00585
5999999.99346
6000000.00689
6000000.00218
5999999.99828
6000000.0088
5999999.99879
5999999.99989
5999999.99866
6000000.0005
5999999.99828
5999999.99971
5999999.99886
5999999.99953
5999999.99932
5999999.99949
5999999.99735
5999999.99784
5999999.9996
5999999.99816
6000000.00013
5999999.9982
5999999.99869
5999999.99805
6000000.00018
5999999.99801
5999999.99732
5999999.9984
5999999.99971
5999999.9985
5999999.99878
5999999.99969
5999999.99736
5999999.99852
5999999.9993
5999999.99572
5999999.99839
6000000.00027
5999999.99911
5999999.9966
5999999.99942
5999999.99758
5999999.99987
5999999.99894
5999999.99873
5999999.99669
5999999.99928
5999999.99996
5999999.99789
5999999.9994
5999999.99968
5999999.99867
5999999.99877
5999999.99925
5999999.99671
5999999.99677
5999999.99934
5999999.9999
6000000.00013
6000000.00024
5999999.99818
5999999.9991
5999999.99795
5999999.99822
5999999.99834
5999999.99864
5999999.99962
6000000.00035
6000000.00206
5999999.99838
5999999.99935
5999999.99942
5999999.99982
5999999.99962
6000000.00072
5999999.99975
5999999.9996
6000000.0004
5999999.99973
5999999.99965
5999999.99971
5999999.99975
6000000.00052
5999999.99998
5999999.99978
5999999.99959
6000000.00023
6000000.00038
5999999.99982
6000000.00027
5999999.99977
6000000.00037
5999999.99987
5999999.99975
6000000.0002
5999999.99998
6000000.00043
5999999.99981
6000000.00004
5999999.99953
6000000.00031
6000000.00044
6000000.00019
6000000.00052
5999999.99981
6000000.00048
6000000.00049
5999999.9997
6000000.00017
5999999.99979
6000000.00033
6000000.00008
5999999.99962
6000000.00063
6000000.00026
6000000.00039
6000000.0003
5999999.99949
5999999.99971
5999999.99975
6000000.0001
6000000.00007
6000000.00032
6000000.00043
5999999.99968
5999999.99993
6000000.00025
6000000.00005
6000000.00038
6000000.00014
6000000.00017
6000000.00042
5999999.99969
6000000.0006
6000000.00068
6000000.00091
6000000.00091
6000000.00103
6000000.00067
6000000.00097
6000000.00081
6000000.00124
6000000.00067
6000000.00081
6000000.00079
6000000.0008
6000000.00074
6000000.00076
6000000.00084
6000000.00093
6000000.00069
6000000.00085
6000000.00105
6000000.00084
6000000.00099
6000000.0011
6000000.00066
6000000.00098
6000000.00087
6000000.00084
6000000.00069
6000000.00055
6000000.00093
6000000.00085
6000000.00078
6000000.00093
6000000.00082
6000000.00115
6000000.00069
6000000.00094
6000000.00064
6000000.00078
6000000.00055
6000000.00081
6000000.00093
6000000.00093
6000000.00098
6000000.00084
6000000.00089
6000000.00089
6000000.00072
6000000.00093
6000000.0011
6000000.00111
6000000.00073
6000000.00076
6000000.00073
6000000.00087
6000000.00095
6000000.00088
6000000.00093
6000000.00099
6000000.00098
6000000.00091
6000000.00084
6000000.00111
6000000.00131
6000000.00086
5999999.99902
5999999.99881
5999999.99891
5999999.99901
5999999.99885
5999999.9993
5999999.99889
5999999.99883
5999999.9987
5999999.99881
5999999.99894
5999999.99911
5999999.99911
5999999.99892
5999999.99874
5999999.99881
5999999.99879
5999999.99901
5999999.99893
5999999.99909
5999999.99891
5999999.99883
5999999.99914
5999999.99911
5999999.99884
5999999.99894
5999999.99933
5999999.99887
5999999.99896
5999999.99905
5999999.99901
5999999.99942
5999999.99908
5999999.99913
5999999.99889
5999999.99888
5999999.99918
5999999.9988
5999999.99867
5999999.99871
5999999.99903
5999999.9991
5999999.99886
5999999.99905
5999999.99903
5999999.99897
5999999.99941
5999999.9991
5999999.99883
5999999.99901
5999999.99887
5999999.99873
5999999.99888
5999999.99872
5999999.999
5999999.9989
5999999.99905
5999999.99907
5999999.99895
5999999.99895
5999999.99892
5999999.99903
5999999.99891
5999999.99883
5999999.99952