/*--------------------------------*- C++ -*----------------------------------*\
  =========                 |
  \\      /  F ield         | OpenFOAM: The Open Source CFD Toolbox
   \\    /   O peration     | Website:  https://openfoam.org
    \\  /    A nd           | Version:  6
     \\/     M anipulation  |
\*---------------------------------------------------------------------------*/
FoamFile
{
    version     2.0;
    format      ascii;
    class       volVectorField;
    location    "2.5e-05";
    object      U;
}
// * * * * * * * * * * * * * * * * * * * * * * * * * * * * * * * * * * * * * //

dimensions      [0 1 -1 0 0 0 0];

internalField   nonuniform List<vector> 
8192
(
(-88.3220000002 0 -1.42542615651e-10)
(-88.3219999998 0 -2.3335908513e-11)
(-88.322 0 -3.02618513965e-11)
(-88.322 0 -3.56725869063e-11)
(-88.322 0 -3.38189533128e-12)
(-88.322 0 -3.16600790186e-12)
(-88.322 0 -1.13289505758e-12)
(-88.322 0 -4.88175007066e-12)
(-88.322 0 -3.50052179256e-11)
(-88.322 0 -1.63727512448e-10)
(-88.322 0 -1.42422858497e-10)
(-88.322 0 6.8939977155e-11)
(-88.322 0 1.31079690449e-10)
(-88.322 0 -1.17915036741e-10)
(-88.322 0 -2.73701881396e-10)
(-88.322 0 7.15211880149e-11)
(-88.322 0 -3.74658456658e-11)
(-88.322 0 1.41606711112e-10)
(-88.322 0 -1.89127925874e-10)
(-88.322 0 -1.17012622495e-10)
(-88.322 0 1.46894499836e-10)
(-88.322 0 1.40817673155e-10)
(-88.322 0 -5.17076769237e-11)
(-88.322 0 -7.46648960603e-11)
(-88.322 0 1.43171464961e-11)
(-88.322 0 7.30761102539e-12)
(-88.322 0 1.3575425716e-11)
(-88.322 0 1.54080525065e-11)
(-88.322 0 1.00101164574e-11)
(-88.322 0 -1.36375524107e-11)
(-88.322 0 3.23054128319e-11)
(-88.322 0 1.70756474867e-11)
(-88.3219999997 0 -2.01378894919e-11)
(-88.3220000002 0 1.58939293185e-10)
(-88.3220000006 0 -1.08944650564e-10)
(-88.3219999998 0 -1.31951459553e-10)
(-88.322 0 1.2447334961e-11)
(-88.3219999999 0 -1.48245415362e-10)
(-88.3219999997 0 6.38751056043e-11)
(-88.3220000001 0 1.1017749239e-12)
(-88.322 0 1.34992911927e-11)
(-88.322 0 -1.57360188436e-12)
(-88.322 0 -9.46847241784e-12)
(-88.322 0 -4.1106214977e-12)
(-88.322 0 -2.15026499686e-11)
(-88.322 0 -7.62426159183e-12)
(-88.322 0 -3.59151208167e-12)
(-88.322 0 -7.45367055479e-13)
(-88.322 0 2.0289002111e-12)
(-88.322 0 -1.07998480825e-11)
(-88.322 0 -1.78792423164e-12)
(-88.322 0 -1.16439541033e-11)
(-88.322 0 -1.02025832648e-11)
(-88.3219999999 0 3.41218227254e-11)
(-88.3220000002 0 3.41088398736e-11)
(-88.3220000001 0 -5.14777243618e-11)
(-88.3219999999 0 -1.50633468569e-12)
(-88.322 0 -2.54700941609e-11)
(-88.322 0 -1.15267754348e-11)
(-88.3219999998 0 -1.82454295723e-11)
(-88.3219999997 0 7.35670859234e-11)
(-88.3219999999 0 1.41900472317e-10)
(-88.3220000002 0 1.46043780254e-10)
(-88.3220000006 0 6.68016835075e-11)
(-88.322 0 5.50383165454e-11)
(-88.322 0 -5.51203376506e-12)
(-88.322 0 1.63539770339e-11)
(-88.322 0 7.86133695713e-12)
(-88.322 0 5.48768743638e-12)
(-88.322 0 -4.96413795956e-13)
(-88.322 0 -2.38053953307e-13)
(-88.322 0 8.49752191359e-14)
(-88.3220000003 0 -7.46011418044e-13)
(-88.3220000002 0 -1.06171218014e-11)
(-88.3219999995 0 -1.42196421513e-12)
(-88.3219999994 0 -1.9959658129e-11)
(-88.3220000004 0 -1.65347019143e-12)
(-88.3220000008 0 -8.32043982703e-12)
(-88.3219999996 0 -3.36560304537e-11)
(-88.3219999995 0 1.75704875438e-11)
(-88.3219999999 0 4.3035317748e-13)
(-88.3220000003 0 8.10416237383e-12)
(-88.3220000005 0 -2.23476351191e-11)
(-88.3219999993 0 -1.12071620049e-11)
(-88.3219999995 0 -9.13984261686e-13)
(-88.3220000004 0 1.4324480731e-11)
(-88.3220000004 0 3.23487561885e-11)
(-88.3219999999 0 -2.30536138191e-11)
(-88.3219999999 0 1.1675503696e-10)
(-88.322 0 -8.34739774362e-11)
(-88.322 0 9.27286598963e-11)
(-88.322 0 7.83889306e-11)
(-88.322 0 5.42030615694e-11)
(-88.322 0 2.29395468722e-11)
(-88.322 0 -5.44788355738e-12)
(-88.322 0 -1.9736848789e-11)
(-88.322 0 8.25390854536e-12)
(-88.322 0 -1.48423857592e-10)
(-88.322 0 8.07923958154e-11)
(-88.322 0 1.11273977575e-10)
(-88.322 0 -2.29247150536e-11)
(-88.322 0 6.00090301445e-11)
(-88.322 0 -5.78312943191e-11)
(-88.322 0 -3.77078517032e-12)
(-88.322 0 4.19809324539e-12)
(-88.322 0 -2.01246444914e-12)
(-88.322 0 -5.72815511465e-12)
(-88.322 0 1.24303207971e-11)
(-88.322 0 -9.82312460528e-11)
(-88.322 0 -5.87171466221e-11)
(-88.322 0 -9.83194847689e-11)
(-88.322 0 -7.49254056914e-11)
(-88.322 0 -7.56277392452e-11)
(-88.322 0 -5.84370542217e-11)
(-88.322 0 6.21318860957e-11)
(-88.322 0 1.59641169813e-11)
(-88.322 0 4.32959759552e-12)
(-88.322 0 9.50360457416e-12)
(-88.322 0 -6.72531114246e-11)
(-88.322 0 1.39314502791e-10)
(-88.322 0 -4.32559217835e-11)
(-88.322 0 -1.55955817446e-10)
(-88.322 0 -1.9577186444e-10)
(-88.322 0 7.89767638994e-11)
(-88.322 0 4.14571207343e-11)
(-88.322 0 -3.10285654555e-10)
(-88.322 0 -2.87607609357e-10)
(-88.322 0 -1.18796722237e-10)
(-88.322 0 8.65894212794e-12)
(-88.3219999999 0 4.44291620486e-12)
(-88.322 0 -2.80444673253e-12)
(-88.322 0 2.4027233328e-11)
(-88.322 0 5.34876576554e-12)
(-88.322 0 9.50452388231e-12)
(-88.322 0 2.25639444705e-12)
(-88.322 0 8.26443881098e-12)
(-88.322 0 2.32463542547e-11)
(-88.322 0 1.57862152708e-10)
(-88.322 0 1.38066348885e-10)
(-88.322 0 -6.53426803009e-11)
(-88.322 0 -1.35833426436e-10)
(-88.3220000001 0 9.86315382299e-11)
(-88.3219999999 0 2.60847802916e-10)
(-88.3219999999 0 -7.09102174135e-11)
(-88.322 0 3.57182595846e-11)
(-88.322 0 -1.28586630138e-10)
(-88.322 0 1.84989985022e-10)
(-88.322 0 1.0674486047e-10)
(-88.3219999999 0 -1.45739530373e-10)
(-88.3219999999 0 -1.27509717748e-10)
(-88.3220000001 0 6.63970908125e-11)
(-88.3219999998 0 7.5660252079e-11)
(-88.3220000001 0 1.33191210023e-12)
(-88.322 0 -7.66753767045e-12)
(-88.3219999997 0 1.12207441478e-12)
(-88.3220000001 0 1.09303839128e-12)
(-88.3220000001 0 6.17968336522e-11)
(-88.3220000001 0 -5.40163778407e-11)
(-88.322 0 5.32786550631e-11)
(-88.322 0 8.26340583606e-12)
(-88.322 0 -4.67750265388e-11)
(-88.322 0 7.31067592539e-11)
(-88.322 0 1.51405396291e-10)
(-88.322 0 -1.04048058418e-11)
(-88.3220000001 0 -1.23914866611e-10)
(-88.322 0 1.56470203575e-10)
(-88.3219999998 0 1.66765313183e-10)
(-88.322 0 -1.79178860887e-10)
(-88.322 0 -1.275154901e-10)
(-88.322 0 -2.56884904453e-11)
(-88.322 0 -5.44563322839e-11)
(-88.3220000002 0 -1.81472049302e-11)
(-88.3220000001 0 -3.46993907307e-11)
(-88.322 0 4.59174664384e-12)
(-88.322 0 -9.62328710127e-11)
(-88.3219999999 0 -2.33057932762e-10)
(-88.322 0 5.35466723462e-11)
(-88.3219999997 0 4.60365577761e-12)
(-88.3219999999 0 -4.3920450977e-11)
(-88.3220000001 0 4.91606625394e-11)
(-88.322 0 -1.14749027145e-10)
(-88.3220000001 0 7.0536000843e-11)
(-88.3219999999 0 -1.41732517163e-11)
(-88.3220000001 0 -9.49184248265e-11)
(-88.3220000005 0 -6.94779706849e-11)
(-88.3220000003 0 -5.87903467928e-11)
(-88.3219999995 0 -4.43576711135e-11)
(-88.3219999994 0 -3.56597653333e-11)
(-88.3220000005 0 -2.40395531865e-11)
(-88.3220000005 0 1.61307175434e-11)
(-88.3219999998 0 -1.55068937531e-12)
(-88.3219999999 0 7.50224234169e-12)
(-88.322 0 9.18243728295e-11)
(-88.322 0 2.85843897087e-11)
(-88.322 0 1.104105196e-11)
(-88.322 0 1.80723657187e-11)
(-88.322 0 -1.13500094133e-11)
(-88.322 0 -5.58988759225e-13)
(-88.322 0 9.0985151516e-13)
(-88.322 0 8.8767963727e-12)
(-88.322 0 2.99619907656e-12)
(-88.322 0 2.09921277565e-11)
(-88.322 0 5.4659444341e-12)
(-88.322 0 9.17906338915e-12)
(-88.322 0 9.16130766252e-12)
(-88.322 0 2.7378237741e-11)
(-88.322 0 4.03707336363e-11)
(-88.322 0 -2.32403021584e-11)
(-88.322 0 1.07024406555e-13)
(-88.322 0 -1.85809083602e-11)
(-88.322 0 2.2549070121e-11)
(-88.322 0 3.53473843275e-11)
(-88.322 0 -7.38342933307e-11)
(-88.322 0 -2.43271639374e-10)
(-88.322 0 5.79561848258e-11)
(-88.322 0 7.93241596309e-11)
(-88.322 0 -6.21687210892e-11)
(-88.322 0 1.24506669308e-10)
(-88.322 0 -6.88703864685e-11)
(-88.3219999999 0 -5.88611358733e-11)
(-88.3220000001 0 -5.08708296735e-11)
(-88.322 0 -1.83998856691e-11)
(-88.3219999999 0 1.65888936717e-11)
(-88.3220000002 0 -1.70799204348e-11)
(-88.3219999999 0 -5.30000216057e-12)
(-88.3219999996 0 -4.39383465288e-12)
(-88.3220000002 0 1.52813922611e-11)
(-88.3220000005 0 1.92944463703e-11)
(-88.3219999997 0 -5.16553071279e-12)
(-88.3219999994 0 8.69170670748e-11)
(-88.3220000007 0 -2.37176526835e-12)
(-88.3220000006 0 -3.8995687635e-13)
(-88.3219999997 0 -6.63394078483e-12)
(-88.3219999999 0 -4.41545354386e-12)
(-88.322 0 4.33552351047e-12)
(-88.322 0 -9.19956875989e-12)
(-88.322 0 1.16227247656e-10)
(-88.3220000001 0 6.06029983438e-11)
(-88.3220000005 0 9.64366054141e-11)
(-88.3219999997 0 6.75582186045e-11)
(-88.3219999995 0 7.76516995629e-11)
(-88.3220000002 0 6.1527914845e-11)
(-88.3219999999 0 -6.21434265652e-11)
(-88.3220000001 0 8.46650669584e-12)
(-88.3219999999 0 -3.83338374203e-11)
(-88.3219999998 0 1.03153898185e-10)
(-88.3220000003 0 1.54828667641e-10)
(-88.3220000001 0 -2.09448272158e-10)
(-88.322 0 -2.29795587011e-11)
(-88.322 0 1.75632512054e-10)
(-88.322 0 1.13681915032e-10)
(-88.3219999999 0 -4.22184392448e-11)
(-88.3219999999 0 -2.17754597547e-10)
(-88.322 0 2.9159937786e-10)
(-88.322 0 1.70080479445e-10)
(-88.322 0 8.85999236531e-11)
(-88.3220000001 0 -3.88930168776e-11)
(-88.322 0 -1.02182526229e-11)
(-88.322 0 9.44028146154e-12)
(-88.322 0 3.79597731895e-12)
(-88.322 0 -1.05685650172e-11)
(-88.322 0 3.11330896167e-12)
(-88.322 0 3.81259252008e-12)
(-88.322 0 1.41579769926e-11)
(-88.322 0 9.29005869883e-12)
(-88.322 0 2.26124081006e-12)
(-88.322 0 3.81167481154e-12)
(-88.322 0 -2.85324499269e-11)
(-88.322 0 -3.62375217168e-11)
(-88.322 0 -6.33673175105e-12)
(-88.322 0 3.80957272922e-12)
(-88.322 0 3.92048937548e-12)
(-88.322 0 8.81777951779e-12)
(-88.322 0 4.02543785813e-12)
(-88.322 0 -6.07197203693e-13)
(-88.3220000001 0 6.51179013644e-12)
(-88.3220000005 0 2.07763831633e-12)
(-88.3219999997 0 4.67751705983e-13)
(-88.3219999995 0 2.86706328579e-12)
(-88.3220000001 0 -1.73600739969e-11)
(-88.322 0 7.69805945402e-12)
(-88.3220000001 0 5.98187757928e-12)
(-88.322 0 4.45544800288e-11)
(-88.322 0 4.48225493464e-11)
(-88.3220000001 0 7.3970080603e-11)
(-88.322 0 2.1864766863e-11)
(-88.322 0 4.24861446029e-11)
(-88.3220000001 0 7.23352379284e-11)
(-88.322 0 -1.80433124758e-11)
(-88.322 0 -9.02050080774e-11)
(-88.322 0 -2.12870897922e-10)
(-88.322 0 -7.64488235127e-11)
(-88.322 0 1.32699589897e-10)
(-88.322 0 -1.8157627777e-10)
(-88.322 0 -1.64474618285e-10)
(-88.322 0 1.58146679053e-10)
(-88.322 0 1.0267398423e-10)
(-88.322 0 2.79514588396e-11)
(-88.322 0 4.37128706306e-11)
(-88.322 0 1.52811308652e-11)
(-88.322 0 1.77851295317e-11)
(-88.322 0 -4.76161606632e-12)
(-88.322 0 9.01935471182e-11)
(-88.322 0 2.16353178317e-10)
(-88.322 0 -4.90119081292e-11)
(-88.322 0 -7.25178850756e-12)
(-88.322 0 3.98115237539e-11)
(-88.3220000001 0 -3.05531046872e-11)
(-88.3219999998 0 9.01273669049e-11)
(-88.3219999997 0 -7.06304185896e-11)
(-88.3220000005 0 -1.35563182206e-11)
(-88.3220000004 0 -7.44829953688e-11)
(-88.3219999998 0 -5.81155274641e-11)
(-88.322 0 5.6581993113e-11)
(-88.3219999999 0 -1.83185929049e-10)
(-88.322 0 1.80665458017e-10)
(-88.3219999998 0 8.9045162518e-11)
(-88.3219999997 0 8.26902557529e-11)
(-88.3220000002 0 4.6245366815e-11)
(-88.322 0 3.34995748056e-11)
(-88.3220000001 0 -6.85949244093e-12)
(-88.3219999999 0 -1.3214033259e-11)
(-88.322 0 4.01972723254e-11)
(-88.322 0 1.7250500999e-10)
(-88.322 0 -1.22561270789e-10)
(-88.322 0 1.51284706562e-10)
(-88.322 0 1.94338238561e-10)
(-88.322 0 -4.54103294821e-11)
(-88.322 0 -8.66719825313e-12)
(-88.322 0 1.152206598e-11)
(-88.322 0 -2.22955281305e-13)
(-88.322 0 1.70938958006e-11)
(-88.322 0 3.37934101898e-11)
(-88.322 0 -4.39782188148e-11)
(-88.322 0 1.27415641567e-10)
(-88.322 0 1.24622435046e-10)
(-88.322 0 8.83735080746e-11)
(-88.322 0 5.32758069956e-11)
(-88.322 0 -2.37380456108e-11)
(-88.322 0 -3.48340568611e-11)
(-88.322 0 1.86489943736e-10)
(-88.322 0 3.29332450411e-10)
(-88.322 0 -1.06083320674e-10)
(-88.322 0 -1.61409434212e-10)
(-88.322 0 -9.56502048462e-11)
(-88.3219999999 0 1.40575644347e-10)
(-88.3219999999 0 7.36991884354e-11)
(-88.3219999998 0 -1.24310455168e-11)
(-88.3220000002 0 1.01316459847e-10)
(-88.3220000001 0 6.33309145071e-11)
(-88.3219999998 0 5.0765101802e-11)
(-88.3220000004 0 -9.61835921435e-11)
(-88.3220000002 0 1.96215713099e-11)
(-88.322 0 5.45885823369e-12)
(-88.3220000001 0 -1.65001267063e-12)
(-88.3219999998 0 -2.00562458944e-12)
(-88.3219999999 0 4.75059180194e-12)
(-88.322 0 3.75851292395e-12)
(-88.322 0 -2.20769548534e-12)
(-88.322 0 1.69041830598e-11)
(-88.322 0 7.08090182403e-12)
(-88.322 0 -6.59376635971e-12)
(-88.322 0 8.79357019144e-13)
(-88.322 0 8.29844888441e-13)
(-88.322 0 1.20632425556e-13)
(-88.322 0 -1.43939192659e-13)
(-88.322 0 4.02889010961e-13)
(-88.322 0 1.82262876382e-11)
(-88.322 0 -8.09901979975e-12)
(-88.322 0 -1.94706277795e-12)
(-88.322 0 3.44726971491e-12)
(-88.322 0 -1.36545786188e-11)
(-88.322 0 6.84655468682e-11)
(-88.322 0 -1.28394234279e-10)
(-88.3220000004 0 -1.1376816251e-10)
(-88.3220000002 0 1.25197236e-10)
(-88.3219999997 0 7.80325138867e-11)
(-88.3220000002 0 1.01490197797e-11)
(-88.3219999997 0 9.01628420375e-11)
(-88.3219999994 0 -2.063106068e-11)
(-88.3220000001 0 1.03113238983e-10)
(-88.3220000001 0 -1.1050542203e-10)
(-88.3220000001 0 -9.7592145845e-12)
(-88.3220000001 0 -3.24607202888e-11)
(-88.322 0 4.65288736817e-11)
(-88.3219999999 0 6.86390924882e-12)
(-88.3219999996 0 -1.06219834078e-11)
(-88.3220000004 0 3.84589038845e-13)
(-88.322 0 1.15001451381e-12)
(-88.3219999994 0 -6.09366940314e-13)
(-88.3220000004 0 -8.91372781362e-12)
(-88.3220000004 0 -8.45322716249e-12)
(-88.3219999999 0 1.50192013405e-11)
(-88.322 0 -6.55083284335e-11)
(-88.322 0 9.81101036324e-11)
(-88.322 0 -1.62678286383e-10)
(-88.3220000001 0 -2.29585100541e-10)
(-88.3219999998 0 -4.15968939649e-11)
(-88.3219999997 0 -4.89087063321e-11)
(-88.3220000001 0 -1.84273321458e-11)
(-88.3220000001 0 -4.70197780802e-12)
(-88.3220000002 0 -5.52947540257e-12)
(-88.3220000001 0 1.53252424133e-12)
(-88.3219999997 0 -7.62271975115e-13)
(-88.3219999998 0 -4.19807480277e-13)
(-88.3220000002 0 3.14805269382e-13)
(-88.3220000004 0 -2.44919124558e-12)
(-88.322 0 1.48663622663e-11)
(-88.3219999994 0 -2.08205338549e-11)
(-88.3219999997 0 -2.00948342542e-14)
(-88.3220000003 0 -5.04475056749e-11)
(-88.322 0 -4.2797940526e-11)
(-88.3219999999 0 -1.36639424358e-10)
(-88.322 0 3.02710530407e-11)
(-88.3220000004 0 -1.05472827041e-10)
(-88.3220000001 0 -1.1597828574e-10)
(-88.3219999998 0 1.46389497895e-10)
(-88.322 0 5.40863671137e-11)
(-88.322 0 -9.15276478681e-11)
(-88.322 0 -3.15533282403e-12)
(-88.322 0 -5.4509446183e-11)
(-88.322 0 2.26264746351e-10)
(-88.322 0 2.61663353457e-11)
(-88.322 0 -4.87270262933e-11)
(-88.322 0 3.19676285284e-13)
(-88.322 0 1.63387697763e-12)
(-88.322 0 2.26832559904e-13)
(-88.322 0 6.02412557593e-12)
(-88.322 0 1.79692173675e-11)
(-88.322 0 5.2523001354e-13)
(-88.322 0 -4.12362872012e-14)
(-88.322 0 -3.4203702125e-13)
(-88.322 0 1.02236194254e-12)
(-88.322 0 5.70157271238e-13)
(-88.322 0 5.56177219423e-12)
(-88.322 0 -1.70408803249e-12)
(-88.322 0 7.94790736881e-12)
(-88.322 0 -1.75781537457e-11)
(-88.322 0 1.40580093347e-11)
(-88.322 0 1.36525118127e-10)
(-88.322 0 8.74865425337e-11)
(-88.322 0 -6.59933706604e-12)
(-88.322 0 2.27455280148e-10)
(-88.322 0 -1.2497809486e-10)
(-88.322 0 -5.74159580451e-11)
(-88.322 0 3.5216479833e-11)
(-88.322 0 4.76224167575e-11)
(-88.322 0 -1.28657538283e-11)
(-88.322 0 3.54222440675e-11)
(-88.322 0 2.02076090885e-11)
(-88.322 0 -4.04241810082e-11)
(-88.322 0 -1.64213952268e-10)
(-88.322 0 1.34891764224e-10)
(-88.322 0 -1.49430237122e-10)
(-88.322 0 -1.94599164657e-10)
(-88.322 0 4.49357328353e-11)
(-88.3220000001 0 8.79228080765e-12)
(-88.3219999998 0 -2.03670065843e-11)
(-88.3220000002 0 3.30374820996e-12)
(-88.3220000007 0 -9.84718832903e-12)
(-88.3219999997 0 -1.53564247438e-11)
(-88.3219999996 0 2.85977011402e-11)
(-88.3219999999 0 -1.28501077176e-10)
(-88.3219999999 0 -1.1184915585e-10)
(-88.322 0 -8.19242705068e-11)
(-88.322 0 -4.54051747698e-11)
(-88.322 0 2.60955929363e-11)
(-88.322 0 1.14154356433e-11)
(-88.322 0 -1.0465286081e-10)
(-88.322 0 -1.02455310553e-10)
(-88.322 0 1.71770036104e-11)
(-88.322 0 1.07310218708e-10)
(-88.322 0 4.1592351811e-11)
(-88.322 0 -1.73451459191e-10)
(-88.322 0 -9.75993033695e-11)
(-88.322 0 -9.04455477384e-12)
(-88.322 0 -1.08884248536e-10)
(-88.322 0 -6.2871415215e-11)
(-88.322 0 -7.60622471874e-11)
(-88.3219999999 0 1.14290505877e-10)
(-88.3219999999 0 -9.1593505806e-12)
(-88.3220000005 0 -3.13080188097e-12)
(-88.3220000003 0 -6.95026380657e-12)
(-88.3219999998 0 1.97365016725e-13)
(-88.3219999994 0 1.91909069603e-11)
(-88.3219999999 0 -3.65354788058e-12)
(-88.3220000005 0 6.91638000863e-12)
(-88.3220000001 0 -1.35238507406e-11)
(-88.3219999999 0 -4.57949293419e-12)
(-88.322 0 1.29562585932e-11)
(-88.322 0 1.24613585035e-12)
(-88.322 0 -3.10569046584e-12)
(-88.322 0 -1.8466656799e-11)
(-88.322 0 -4.79492033315e-12)
(-88.322 0 1.25179444141e-12)
(-88.322 0 -1.22452555965e-11)
(-88.322 0 5.33714258649e-12)
(-88.322 0 2.08860706465e-12)
(-88.322 0 -6.69561968141e-12)
(-88.322 0 -3.42437019098e-13)
(-88.322 0 -3.55016959885e-11)
(-88.322 0 1.39594537981e-10)
(-88.322 0 1.08942663748e-10)
(-88.322 0 -1.77050410988e-10)
(-88.322 0 -1.06439346423e-10)
(-88.322 0 -1.8006972422e-11)
(-88.322 0 -1.08753005017e-10)
(-88.322 0 3.73343742489e-11)
(-88.3219999998 0 -1.01118974483e-10)
(-88.3219999999 0 1.14507081705e-10)
(-88.3220000002 0 9.41473306923e-12)
(-88.3220000002 0 1.67547177461e-11)
(-88.322 0 -3.7516719045e-11)
(-88.322 0 -1.29516965853e-11)
(-88.322 0 3.86358871714e-12)
(-88.322 0 -4.04838292405e-12)
(-88.322 0 3.35075205023e-12)
(-88.322 0 3.5532283074e-12)
(-88.322 0 2.30083034065e-12)
(-88.322 0 -5.87180308328e-12)
(-88.322 0 -1.76526104611e-11)
(-88.322 0 5.39029284393e-11)
(-88.322 0 -1.03619971613e-10)
(-88.322 0 1.86918507038e-10)
(-88.322 0 2.72059230436e-10)
(-88.322 0 4.37085105505e-11)
(-88.322 0 4.58282244815e-11)
(-88.322 0 1.43385390886e-11)
(-88.322 0 -4.02592385881e-12)
(-88.322 0 5.50418868847e-12)
(-88.322 0 5.32341995977e-13)
(-88.322 0 8.01595310951e-15)
(-88.322 0 -2.97412203702e-12)
(-88.322 0 3.55030844543e-12)
(-88.322 0 5.45900699789e-12)
(-88.322 0 1.06141136783e-12)
(-88.322 0 5.51695201665e-12)
(-88.322 0 -5.55896374075e-12)
(-88.322 0 4.17187442621e-12)
(-88.322 0 5.2924673152e-12)
(-88.322 0 -4.68832509389e-12)
(-88.322 0 8.57537536441e-12)
(-88.322 0 6.76042253201e-12)
(-88.322 0 2.30040230249e-11)
(-88.322 0 -6.24082669187e-11)
(-88.322 0 1.25159153307e-10)
(-88.322 0 6.23758935337e-11)
(-88.322 0 -1.31507202146e-11)
(-88.322 0 2.67443172749e-11)
(-88.322 0 -3.04157210274e-10)
(-88.322 0 -9.3057243873e-12)
(-88.322 0 6.46494510971e-11)
(-88.322 0 1.01397028691e-11)
(-88.322 0 -3.025601506e-12)
(-88.322 0 1.31937408253e-11)
(-88.322 0 -1.04962308028e-11)
(-88.322 0 -1.60630086628e-11)
(-88.322 0 -3.27884013414e-12)
(-88.322 0 5.72521963291e-12)
(-88.322 0 1.26913082426e-11)
(-88.322 0 6.49361568705e-12)
(-88.322 0 1.27253771254e-11)
(-88.322 0 -3.48226449253e-12)
(-88.322 0 -4.31540552885e-12)
(-88.3219999997 0 1.00734805954e-11)
(-88.3219999998 0 1.79722337709e-11)
(-88.3220000007 0 3.24122848987e-11)
(-88.3220000005 0 -5.06949860654e-11)
(-88.3219999997 0 -2.14370790205e-11)
(-88.322 0 -2.81855034049e-11)
(-88.3219999999 0 -1.29658449919e-11)
(-88.322 0 -2.88839064223e-11)
(-88.3219999998 0 5.83665237143e-11)
(-88.3219999997 0 -2.51329882258e-10)
(-88.3220000002 0 -1.64794952859e-10)
(-88.322 0 -7.19000128179e-11)
(-88.3219999999 0 -3.2133698663e-12)
(-88.322 0 3.42108912653e-11)
(-88.322 0 -1.49877916765e-11)
(-88.322 0 -9.78365020933e-12)
(-88.322 0 7.78383579799e-12)
(-88.322 0 4.17007391837e-12)
(-88.322 0 -1.37660958735e-11)
(-88.322 0 -2.82812104412e-11)
(-88.322 0 -1.21172542151e-11)
(-88.322 0 -1.3021052693e-11)
(-88.322 0 -3.85807569105e-13)
(-88.322 0 -9.16171688167e-12)
(-88.322 0 -6.97157472462e-12)
(-88.322 0 5.09809913015e-13)
(-88.322 0 -5.6025518384e-13)
(-88.322 0 -4.22369715374e-12)
(-88.322 0 -6.85290116879e-12)
(-88.322 0 -3.71237325217e-12)
(-88.322 0 4.31849231534e-12)
(-88.322 0 -2.56611882163e-11)
(-88.322 0 -3.3052399827e-11)
(-88.322 0 6.25174953125e-11)
(-88.322 0 7.92504177553e-11)
(-88.322 0 -1.08185205955e-10)
(-88.322 0 -1.09648572723e-10)
(-88.322 0 -7.35269738832e-11)
(-88.322 0 5.06749162604e-12)
(-88.322 0 -2.92993459186e-11)
(-88.322 0 1.75979212235e-11)
(-88.322 0 -5.78403264983e-11)
(-88.322 0 -1.00540624172e-10)
(-88.322 0 -1.08556187728e-10)
(-88.3219999996 0 -3.33767105733e-12)
(-88.3220000002 0 -1.34622980537e-10)
(-88.3220000005 0 -1.61945793499e-10)
(-88.3219999998 0 -2.27606215681e-10)
(-88.322 0 1.3129596969e-10)
(-88.3219999999 0 2.35638489003e-10)
(-88.3219999998 0 -1.77990849495e-10)
(-88.322 0 -1.97885216232e-10)
(-88.322 0 5.86221240329e-11)
(-88.322 0 1.71100914322e-11)
(-88.322 0 -1.69576854961e-10)
(-88.322 0 -1.57685909667e-10)
(-88.322 0 1.55385839708e-10)
(-88.322 0 -8.65583686518e-11)
(-88.322 0 4.7735327465e-11)
(-88.322 0 -1.93169579782e-10)
(-88.322 0 1.79514560046e-10)
(-88.322 0 -5.34663940672e-12)
(-88.322 0 1.30741406219e-11)
(-88.322 0 1.73710968499e-11)
(-88.322 0 -5.79601293823e-11)
(-88.322 0 -2.20395671364e-10)
(-88.3220000002 0 -1.95429152758e-10)
(-88.3220000001 0 2.87136525277e-11)
(-88.3219999999 0 2.06460804722e-10)
(-88.3219999999 0 2.51939680342e-10)
(-88.3219999999 0 -6.77351396946e-11)
(-88.3219999998 0 -1.40501066814e-10)
(-88.3220000002 0 1.13828029042e-10)
(-88.3220000003 0 -3.3119531717e-11)
(-88.3219999998 0 -5.45042289916e-11)
(-88.3219999999 0 2.26919830181e-11)
(-88.322 0 2.74528389002e-11)
(-88.3220000001 0 1.33681513666e-11)
(-88.3220000001 0 2.26048814415e-12)
(-88.322 0 -2.31114283281e-11)
(-88.322 0 1.19159763519e-12)
(-88.322 0 -2.38181361702e-11)
(-88.322 0 1.4217713392e-11)
(-88.322 0 1.1518679595e-11)
(-88.322 0 -1.52198437802e-11)
(-88.322 0 -1.16439589492e-10)
(-88.322 0 -7.72276022915e-11)
(-88.322 0 -1.28534856152e-10)
(-88.322 0 -1.49561545567e-10)
(-88.322 0 -1.16394554872e-10)
(-88.322 0 9.58692230985e-12)
(-88.322 0 1.90127687514e-11)
(-88.322 0 8.8840314314e-12)
(-88.322 0 -5.42771772845e-11)
(-88.322 0 -1.00850682819e-10)
(-88.322 0 7.17189008068e-11)
(-88.3219999998 0 1.21681152165e-10)
(-88.3219999998 0 1.88694125996e-10)
(-88.3220000004 0 -8.75494786336e-11)
(-88.3220000004 0 -4.39114825002e-11)
(-88.3219999999 0 3.22729864715e-11)
(-88.3219999998 0 3.15925054466e-11)
(-88.3219999999 0 3.76148105665e-11)
(-88.322 0 1.44560689197e-11)
(-88.3220000001 0 1.33001681991e-11)
(-88.3220000002 0 3.73098665473e-12)
(-88.3220000001 0 -1.2273566524e-11)
(-88.3219999998 0 6.19968943966e-12)
(-88.322 0 -5.0358625325e-12)
(-88.3220000003 0 -1.72157261402e-10)
(-88.3220000002 0 1.06315346432e-10)
(-88.3219999994 0 1.32452959466e-10)
(-88.3219999991 0 6.09816025642e-11)
(-88.3220000006 0 1.88362535496e-10)
(-88.3220000009 0 -4.44152035257e-11)
(-88.3219999995 0 1.1862033664e-11)
(-88.3219999996 0 1.4818155986e-12)
(-88.3220000005 0 -9.85974088441e-13)
(-88.3220000003 0 2.08214010344e-12)
(-88.3219999994 0 -1.03881461337e-11)
(-88.3219999999 0 1.09922909897e-11)
(-88.3220000002 0 -9.63300072579e-12)
(-88.3220000002 0 -1.73736172785e-11)
(-88.3219999997 0 3.35681276569e-11)
(-88.3219999996 0 3.09693585757e-11)
(-88.3220000004 0 7.20965980455e-11)
(-88.3219999999 0 -7.62528270137e-11)
(-88.3220000001 0 -9.99286086451e-11)
(-88.3220000002 0 5.68246592268e-11)
(-88.322 0 -1.25555311326e-11)
(-88.3220000002 0 1.70198698522e-12)
(-88.3219999997 0 7.31108344143e-11)
(-88.3219999992 0 8.62053410522e-11)
(-88.3220000005 0 9.31094339474e-11)
(-88.3220000007 0 -1.5987466938e-11)
(-88.3219999996 0 5.09126943272e-12)
(-88.3219999996 0 -7.80859505316e-11)
(-88.3220000001 0 1.22324544045e-10)
(-88.3220000001 0 7.26471310516e-11)
(-88.3219999999 0 4.43785893652e-11)
(-88.322 0 -3.27547881992e-11)
(-88.322 0 -3.97480362573e-11)
(-88.322 0 1.26755613501e-11)
(-88.322 0 -8.48471078515e-12)
(-88.322 0 -1.3876227391e-12)
(-88.322 0 -7.85606726071e-12)
(-88.322 0 3.92878065057e-12)
(-88.322 0 1.50000969502e-11)
(-88.3220000003 0 8.77517160776e-12)
(-88.3220000001 0 -7.79377599388e-14)
(-88.322 0 -2.50844041164e-11)
(-88.3220000001 0 -1.70566054814e-12)
(-88.322 0 -1.81226159306e-11)
(-88.3219999997 0 -7.94972857755e-12)
(-88.3219999997 0 -1.28367939807e-11)
(-88.322 0 -1.7573585998e-12)
(-88.3220000001 0 -4.86935794725e-13)
(-88.3220000002 0 3.71214074342e-12)
(-88.3219999998 0 -7.23113051472e-12)
(-88.3219999996 0 2.77103943167e-11)
(-88.3219999998 0 2.76880078928e-11)
(-88.3220000004 0 -5.5432001182e-11)
(-88.3220000005 0 -8.22419861346e-11)
(-88.3219999998 0 1.01813016479e-10)
(-88.3219999999 0 1.08125285694e-10)
(-88.322 0 6.82775321658e-11)
(-88.322 0 -3.76475057564e-12)
(-88.322 0 3.01613342238e-11)
(-88.322 0 -1.15220036891e-11)
(-88.322 0 5.88757665168e-11)
(-88.322 0 1.00981304369e-10)
(-88.322 0 1.07400289736e-10)
(-88.322 0 3.57824957951e-12)
(-88.322 0 1.34619970814e-10)
(-88.322 0 1.65638035126e-10)
(-88.3219999999 0 2.37091288621e-10)
(-88.3219999999 0 -1.30713567648e-10)
(-88.3220000001 0 -2.29804105808e-10)
(-88.3220000001 0 1.80759621425e-10)
(-88.322 0 1.95476341683e-10)
(-88.322 0 -5.51919738683e-11)
(-88.322 0 -1.71394871809e-11)
(-88.322 0 1.67483644204e-10)
(-88.322 0 1.55157149336e-10)
(-88.322 0 -1.59059459369e-10)
(-88.322 0 8.55918148306e-11)
(-88.3219999999 0 -4.87730999104e-11)
(-88.3219999999 0 1.90808230454e-10)
(-88.3219999999 0 -1.81171518245e-10)
(-88.3220000002 0 6.94506646921e-12)
(-88.3220000003 0 -1.16596069008e-11)
(-88.3219999998 0 -3.17199252268e-11)
(-88.3219999998 0 8.339854919e-12)
(-88.3220000001 0 1.87539300593e-10)
(-88.322 0 1.65384738912e-10)
(-88.322 0 4.23287932029e-12)
(-88.3219999999 0 -8.68547880403e-11)
(-88.3220000001 0 -2.60794127364e-10)
(-88.3220000001 0 1.64802003868e-10)
(-88.322 0 9.81722937471e-11)
(-88.322 0 -1.79215047096e-11)
(-88.322 0 -8.75926310714e-11)
(-88.322 0 1.90054932319e-11)
(-88.322 0 -3.94122035395e-11)
(-88.322 0 2.03677682161e-12)
(-88.322 0 1.50533247043e-11)
(-88.322 0 -5.82019301044e-12)
(-88.322 0 2.09277256565e-11)
(-88.322 0 -1.23912106805e-12)
(-88.322 0 2.05907166016e-11)
(-88.322 0 -1.98294659336e-11)
(-88.322 0 -2.75995551107e-11)
(-88.322 0 -2.60418278998e-11)
(-88.322 0 3.16411147357e-11)
(-88.322 0 8.41190097692e-11)
(-88.322 0 4.79656458683e-11)
(-88.322 0 -2.34412072172e-12)
(-88.322 0 -2.50350033001e-11)
(-88.322 0 1.37265222449e-13)
(-88.322 0 -1.33765100137e-11)
(-88.322 0 -8.81370238141e-12)
(-88.322 0 4.99029845866e-11)
(-88.322 0 1.01022956651e-10)
(-88.322 0 -7.55957711274e-11)
(-88.322 0 -1.2355183342e-10)
(-88.322 0 -1.8633491046e-10)
(-88.322 0 7.79451687908e-11)
(-88.322 0 4.56879246012e-11)
(-88.322 0 -3.05260901066e-11)
(-88.322 0 -3.07118132194e-11)
(-88.322 0 -3.9480367408e-11)
(-88.322 0 -2.39327588422e-11)
(-88.322 0 -1.45911086072e-11)
(-88.322 0 -3.22175918977e-13)
(-88.322 0 1.06533591035e-11)
(-88.322 0 2.20260302627e-11)
(-88.322 0 -4.56125981657e-11)
(-88.322 0 5.69715266559e-11)
(-88.322 0 -8.81021974665e-11)
(-88.322 0 -8.7510240736e-11)
(-88.322 0 -1.06608309711e-10)
(-88.322 0 4.29450255027e-11)
(-88.322 0 -1.04102145918e-10)
(-88.322 0 -1.55281155914e-10)
(-88.322 0 1.15606041589e-10)
(-88.322 0 8.19086568529e-11)
(-88.322 0 -5.43630735055e-11)
(-88.322 0 -1.93871306987e-12)
(-88.322 0 -1.12467945464e-10)
(-88.322 0 -1.16630743956e-10)
(-88.322 0 -4.92538133909e-11)
(-88.322 0 -1.23651293059e-10)
(-88.322 0 -7.08998708214e-11)
(-88.322 0 -8.91592822521e-11)
(-88.322 0 6.27229800691e-11)
(-88.3220000001 0 1.11117751363e-10)
(-88.3219999998 0 -7.96350975017e-11)
(-88.3219999997 0 1.49603352258e-11)
(-88.3220000005 0 -6.30868511766e-11)
(-88.3220000002 0 6.51422922941e-11)
(-88.3219999998 0 -7.47338204601e-11)
(-88.322 0 -2.55481017111e-10)
(-88.322 0 -1.30846305396e-10)
(-88.322 0 -4.2908889635e-11)
(-88.322 0 9.41103720579e-12)
(-88.322 0 1.21774569493e-12)
(-88.322 0 -7.64709412013e-13)
(-88.322 0 4.94218359303e-13)
(-88.322 0 2.71877027252e-11)
(-88.322 0 -2.62475354734e-11)
(-88.322 0 -7.51490250012e-12)
(-88.322 0 -2.21754770239e-12)
(-88.322 0 -7.3619225657e-12)
(-88.322 0 -2.46646840504e-12)
(-88.322 0 7.87327187292e-12)
(-88.3220000001 0 -2.30739026772e-12)
(-88.3220000001 0 1.53201566726e-11)
(-88.3219999999 0 -4.6810055567e-11)
(-88.322 0 1.2878772668e-10)
(-88.3220000002 0 -1.72131434207e-10)
(-88.3220000001 0 -2.49533917609e-10)
(-88.3219999997 0 -1.56758371867e-11)
(-88.3219999997 0 -6.25874590857e-12)
(-88.322 0 -8.87114333325e-12)
(-88.322 0 -3.4211154449e-13)
(-88.322 0 -5.52195269546e-12)
(-88.322 0 1.98877085749e-12)
(-88.322 0 -2.53301013126e-12)
(-88.322 0 -3.89157097073e-12)
(-88.322 0 -1.16873014119e-11)
(-88.322 0 -1.41124999378e-13)
(-88.322 0 6.02213687809e-12)
(-88.322 0 -2.73193260843e-13)
(-88.322 0 -2.07876679767e-12)
(-88.322 0 -8.53697105444e-12)
(-88.322 0 -4.78927077521e-12)
(-88.322 0 -1.91378241125e-11)
(-88.322 0 -9.83583699043e-13)
(-88.322 0 -1.1711722452e-14)
(-88.3220000001 0 8.74368478587e-13)
(-88.3219999999 0 -5.59440885704e-14)
(-88.3220000001 0 -9.44917710881e-13)
(-88.3220000002 0 -7.54278604805e-13)
(-88.3219999999 0 -1.71608975573e-12)
(-88.3219999997 0 -1.7045825864e-11)
(-88.3220000001 0 -1.62866420868e-12)
(-88.3220000005 0 -2.50966610253e-12)
(-88.3219999995 0 -7.46166674795e-13)
(-88.3219999996 0 1.47785796287e-13)
(-88.3220000004 0 1.95488009651e-12)
(-88.3220000002 0 1.55656654906e-13)
(-88.3220000001 0 4.4849252943e-13)
(-88.3220000002 0 3.99544498256e-13)
(-88.3219999999 0 -2.53811770199e-12)
(-88.3219999999 0 -7.3539383226e-13)
(-88.3219999999 0 -8.43658128639e-13)
(-88.3219999998 0 -4.155100675e-13)
(-88.322 0 -4.19778028542e-13)
(-88.3219999999 0 -2.34359012001e-12)
(-88.322 0 3.12938099941e-11)
(-88.322 0 1.21581492197e-11)
(-88.322 0 5.05695580881e-12)
(-88.3219999999 0 -4.39954386705e-12)
(-88.322 0 -3.37713431243e-12)
(-88.3220000005 0 -8.72657823947e-11)
(-88.3220000002 0 -3.07741840906e-11)
(-88.3219999997 0 -3.57085059791e-11)