/*--------------------------------*- C++ -*----------------------------------*\
  =========                 |
  \\      /  F ield         | OpenFOAM: The Open Source CFD Toolbox
   \\    /   O peration     | Website:  https://openfoam.org
    \\  /    A nd           | Version:  6
     \\/     M anipulation  |
\*---------------------------------------------------------------------------*/
FoamFile
{
    version     2.0;
    format      ascii;
    class       volScalarField;
    location    "4.1e-05";
    object      p;
}
// * * * * * * * * * * * * * * * * * * * * * * * * * * * * * * * * * * * * * //

dimensions      [1 -1 -2 0 0 0 0];

internalField   nonuniform List<scalar> 
8192
(
6000000.00095
5999999.99941
6000000.0006
6000000.00025
6000000.00274
5999999.99767
6000000.0008
6000000.00008
6000000.00005
5999999.99999
6000000.0002
6000000.00004
6000000.00083
6000000.00076
6000000.00057
6000000.00023
6000000.00047
5999999.99954
5999999.99918
6000000.00044
5999999.99923
5999999.99825
6000000.0012
6000000.00025
5999999.99973
6000000.00001
5999999.9992
5999999.99932
5999999.99852
5999999.99992
5999999.99955
6000000.00018
5999999.99752
5999999.99489
6000000.00628
6000000.00685
5999999.99921
6000000.00494
5999999.99862
5999999.99815
6000000.00149
5999999.99885
5999999.99993
6000000.00002
6000000.0002
6000000.00011
6000000.00001
6000000.00007
5999999.99964
6000000.00067
5999999.99842
5999999.99993
6000000.00245
5999999.99665
5999999.99796
6000000.00199
6000000.00043
6000000.00238
5999999.99974
6000000.00391
5999999.99717
5999999.99794
5999999.99718
6000000.00058
6000000.00016
6000000.00105
5999999.99962
6000000.00236
5999999.99742
6000000.00212
5999999.99937
5999999.99855
6000000.0021
6000000.00353
6000000.00716
5999999.99728
5999999.99385
6000000.00722
6000000.00288
5999999.9963
5999999.99675
5999999.99429
6000000.00318
6000000.00479
5999999.99991
5999999.99894
6000000.00538
6000000.00534
5999999.99859
5999999.99819
5999999.99886
5999999.99942
5999999.99795
6000000.00244
5999999.998
6000000.00098
6000000.00117
5999999.99961
6000000.00284
5999999.9989
5999999.99996
5999999.99989
5999999.9997
6000000.00001
5999999.99968
6000000.00023
6000000.00009
5999999.99999
5999999.99998
5999999.99998
6000000.00002
6000000.00001
5999999.99983
6000000.00045
5999999.99997
6000000.00076
6000000.00044
5999999.9995
6000000.00021
5999999.99998
5999999.99939
5999999.99912
5999999.99999
5999999.99992
6000000.00015
5999999.99983
6000000.00031
6000000.00043
6000000.00551
6000000.00038
5999999.99924
6000000.00056
5999999.99972
5999999.99968
6000000.00004
5999999.99997
5999999.99989
6000000.00069
5999999.99902
6000000.00315
6000000.00082
6000000.00255
6000000.00377
5999999.99688
5999999.99733
5999999.99815
6000000.00268
6000000.0019
6000000.00017
5999999.99948
5999999.99927
6000000.00085
5999999.99582
6000000.00181
5999999.99671
5999999.99742
6000000.00038
6000000.00031
5999999.9989
5999999.99938
5999999.99993
5999999.99981
6000000.00043
6000000.00064
5999999.99979
6000000.00236
6000000.00027
6000000.00038
5999999.99945
6000000.00018
5999999.99872
6000000.00228
6000000.0026
6000000.0029
6000000.00205
6000000.00338
6000000.00259
6000000.00108
5999999.99552
6000000.00154
6000000.00129
5999999.99857
6000000.00083
5999999.99855
6000000.00219
6000000.00125
6000000.00244
5999999.99431
5999999.99299
6000000.00212
6000000.00534
6000000.00345
5999999.99975
5999999.99997
6000000.00013
6000000.00004
5999999.99993
6000000.00001
5999999.99999
6000000.00001
6000000.00015
6000000.00002
6000000.0004
5999999.99872
5999999.99841
6000000.00166
5999999.99947
6000000.00006
6000000.00003
5999999.99998
6000000.00004
6000000.00006
6000000.00005
5999999.99948
5999999.99997
6000000.00003
5999999.9999
5999999.99995
5999999.99991
5999999.99748
5999999.99976
6000000.00123
5999999.99735
6000000.00076
6000000.00688
5999999.99509
5999999.99725
6000000.00401
6000000.00789
5999999.99128
5999999.99727
6000000.00196
6000000.00338
5999999.99688
6000000.00283
5999999.99995
6000000.00357
5999999.99879
6000000.00575
6000000.00428
5999999.99392
6000000.00026
6000000.0044
5999999.99834
6000000.00469
5999999.99587
5999999.99925
6000000.00173
6000000.00204
6000000.00317
6000000.00083
6000000.00151
6000000.00053
5999999.99913
5999999.99948
5999999.99956
5999999.99967
5999999.99906
6000000.00017
5999999.99857
6000000.00325
5999999.99901
5999999.99993
5999999.99953
5999999.99998
5999999.99993
6000000.00008
6000000.00006
6000000.00115
5999999.99825
6000000.00028
6000000.00023
5999999.99995
6000000.00161
5999999.99704
5999999.99758
6000000.00465
6000000.00211
5999999.99585
5999999.996
5999999.99899
5999999.99611
5999999.99849
5999999.99567
6000000.00091
6000000.00319
5999999.99758
6000000.00044
5999999.99931
6000000.0007
6000000.0002
5999999.99942
6000000.00115
5999999.99818
6000000.00098
5999999.99986
6000000.00001
6000000.00011
6000000.00001
6000000.00001
6000000.00002
6000000.00008
5999999.99929
6000000.00119
5999999.99784
5999999.99948
5999999.99938
6000000.00023
6000000.00362
5999999.99779
5999999.99562
6000000.00129
6000000.00373
5999999.99869
6000000.00337
5999999.9988
6000000.00442
5999999.99687
5999999.99767
5999999.99688
6000000.00256
6000000.00116
5999999.99749
6000000.00111
6000000.00038
6000000.00062
6000000.00025
5999999.99973
6000000
6000000.0004
5999999.99905
6000000.00206
6000000.00179
6000000.00109
6000000.00058
5999999.99983
5999999.99837
5999999.99804
6000000.00034
6000000.00026
5999999.99996
5999999.99956
5999999.99903
6000000.00175
5999999.99796
6000000.00062
5999999.99746
5999999.99556
5999999.99661
6000000.00253
5999999.99766
5999999.99679
6000000.00727
5999999.99925
6000000.00328
6000000.0006
5999999.99792
6000000.00328
5999999.99735
6000000.00249
5999999.9997
5999999.99977
6000000.00022
6000000.00001
6000000.0002
6000000.00005
6000000.00001
6000000.00134
5999999.99903
6000000.00222
6000000.0005
5999999.9988
6000000.00164
5999999.99956
5999999.99984
6000000.00382
5999999.9996
6000000.00216
6000000.00377
5999999.99412
5999999.99474
5999999.99603
5999999.99869
6000000.00013
6000000.00054
6000000.00111
5999999.99633
5999999.99301
6000000.0018
5999999.99659
5999999.99833
6000000.00532
5999999.99889
5999999.99889
6000000.00111
5999999.99773
5999999.99836
6000000.00524
5999999.9954
5999999.99824
5999999.99514
6000000.00041
6000000.00596
6000000.00039
5999999.99784
5999999.99268
6000000.00221
6000000.00027
6000000.00267
5999999.99876
5999999.9976
6000000.00165
5999999.99557
5999999.99484
5999999.99977
6000000.00303
5999999.99878
5999999.9986
5999999.99799
6000000.00123
6000000.00184
5999999.9991
6000000.00065
5999999.99955
5999999.99987
6000000.0002
5999999.99998
5999999.99998
6000000.00001
5999999.99977
6000000.00083
5999999.99703
6000000.00056
5999999.99995
5999999.99993
5999999.99841
6000000.00076
6000000.00048
5999999.99955
6000000.00032
6000000.00109
5999999.99884
5999999.99956
6000000.00024
5999999.99963
5999999.99832
5999999.99766
5999999.999
5999999.99759
6000000.00108
6000000.00122
6000000.00038
6000000.00004
5999999.99976
6000000.00139
5999999.99867
6000000.00191
6000000.002
5999999.99483
6000000.00425
6000000.00208
6000000.00041
6000000.00117
5999999.99903
6000000.00166
5999999.99941
5999999.99976
6000000.00017
6000000.00005
6000000.00014
5999999.99854
6000000.00163
5999999.99835
5999999.9996
6000000.00065
5999999.99828
6000000.00174
5999999.99808
6000000.00105
5999999.99981
5999999.9994
5999999.99861
6000000.00227
6000000.00653
5999999.99891
5999999.99844
6000000.00034
6000000.00171
5999999.99921
5999999.99846
6000000.00308
5999999.9993
6000000.00003
6000000.00003
6000000.00021
6000000.00163
5999999.99855
6000000.00278
5999999.99921
5999999.9992
6000000.00089
5999999.99994
5999999.99964
6000000.00217
6000000.00092
6000000.00149
5999999.99984
5999999.99895
5999999.99969
5999999.99632
5999999.99623
6000000.00158
6000000.00025
5999999.99914
5999999.99975
5999999.99929
5999999.99987
5999999.99934
6000000.00018
5999999.99953
6000000
6000000.00022
6000000.00001
6000000.00004
5999999.99977
6000000.00018
6000000.00006
5999999.99991
5999999.99989
5999999.9999
6000000.00004
6000000.00005
5999999.9999
5999999.99989
5999999.99983
6000000.00001
5999999.99988
5999999.99993
5999999.99988
5999999.99993
6000000.00001
6000000.00001
5999999.99988
5999999.99998
6000000.00002
6000000
5999999.9988
6000000.00171
5999999.99851
5999999.99967
5999999.99971
5999999.99972
6000000.00003
5999999.99998
6000000.00001
6000000.00004
6000000.0002
6000000.00011
6000000.00001
6000000.00001
6000000.00011
5999999.99845
6000000.002
6000000.00075
5999999.99954
5999999.99514
5999999.99322
6000000.00177
6000000.00343
6000000.00125
6000000.00415
5999999.99691
6000000.00386
5999999.99479
6000000.00025
5999999.99718
6000000.00059
6000000.00065
6000000.00124
5999999.99999
6000000.00162
5999999.99808
6000000.00047
6000000.00012
6000000.00002
6000000.00018
6000000.00003
6000000.00025
5999999.9993
6000000.00088
6000000.00019
6000000.00001
6000000.00001
5999999.99993
5999999.99993
6000000.00002
6000000.00009
5999999.99953
5999999.9992
5999999.99919
5999999.99908
5999999.9999
5999999.99964
5999999.99868
6000000.00086
6000000.00074
6000000.00036
6000000.00163
5999999.9985
5999999.99712
6000000.00623
6000000.00322
6000000.00114
6000000.00321
5999999.99789
5999999.99967
6000000.00005
5999999.99987
6000000.00006
6000000.00006
6000000.00035
5999999.99997
6000000.00129
5999999.99921
5999999.99957
5999999.99986
5999999.99989
6000000.00048
6000000.0029
5999999.99987
5999999.99839
6000000.00364
6000000.00141
6000000.00145
6000000.00079
5999999.99789
5999999.99888
6000000.00541
6000000.00326
6000000.00272
5999999.9987
5999999.99807
6000000.00191
5999999.99984
5999999.99904
5999999.99823
6000000.00173
6000000.00109
6000000.00018
6000000.00067
5999999.99969
6000000.00021
5999999.99986
6000000.00043
6000000.00052
6000000.0005
6000000.0003
5999999.99988
5999999.9993
6000000.00232
6000000.00092
5999999.99541
5999999.99611
6000000.00369
6000000.00182
6000000.00043
5999999.99892
6000000.00179
5999999.99837
6000000.00074
6000000.00214
6000000.0021
5999999.99596
6000000.00314
6000000.0019
6000000.00516
5999999.99549
5999999.99747
6000000.00157
6000000.00044
5999999.99432
5999999.99904
6000000.00175
6000000.00518
5999999.99842
6000000.00212
6000000.00055
6000000.00504
5999999.99678
6000000.00088
6000000.00107
5999999.99718
6000000.00305
6000000.00369
6000000.00431
6000000.00778
5999999.99479
5999999.99735
6000000.00376
6000000.00465
5999999.99526
5999999.99453
6000000.00173
5999999.99775
6000000.00001
6000000.00045
5999999.99809
6000000.00331
5999999.99861
6000000.00196
5999999.9975
5999999.99671
6000000.00213
6000000.00366
5999999.99991
6000000.00402
6000000.00212
6000000.00085
5999999.99937
5999999.99998
5999999.99879
6000000.00305
6000000.00783
5999999.99695
5999999.9989
5999999.99175
6000000.00394
6000000.00454
5999999.99617
5999999.99717
5999999.9966
5999999.9979
5999999.99694
5999999.99978
5999999.99941
6000000.00015
5999999.99993
5999999.99941
6000000.00154
5999999.99639
5999999.99722
5999999.99723
6000000.00382
5999999.9998
5999999.9999
6000000.00084
5999999.99922
6000000.00146
5999999.99997
6000000.00139
6000000.00484
5999999.9968
5999999.99613
5999999.99521
6000000.00244
6000000.00261
5999999.99488
5999999.9985
5999999.99708
6000000.00102
5999999.99807
5999999.99578
6000000.00355
6000000.00226
6000000.00031
6000000.00088
5999999.99997
6000000.00015
6000000.00004
6000000.00004
6000000.00001
5999999.99998
5999999.99993
5999999.99993
6000000.00015
6000000.00001
5999999.99964
6000000.00071
6000000.0034
6000000.00041
6000000.00022
6000000.00144
5999999.99941
6000000.00177
6000000.00034
5999999.99972
5999999.99994
6000000.00006
6000000.00126
5999999.99849
5999999.99808
6000000.00156
5999999.99828
6000000.0001
5999999.99981
5999999.99993
5999999.99989
6000000.00001
5999999.99987
6000000.00004
5999999.99994
5999999.99802
6000000.00207
5999999.99975
5999999.99957
6000000.00038
5999999.99725
6000000.00052
6000000.00038
6000000.00004
6000000.00001
5999999.99939
6000000.00218
6000000.00001
5999999.99995
6000000.00041
5999999.99982
6000000.00028
5999999.99868
6000000.00338
6000000.00271
5999999.99741
5999999.99798
6000000.00181
5999999.99802
6000000.00226
5999999.99968
6000000.00001
6000000.00001
5999999.99982
6000000.00002
5999999.99988
6000000.00074
5999999.99838
6000000.00138
6000000.00042
6000000.00015
5999999.99967
6000000.00077
5999999.99787
6000000.00434
6000000.00301
5999999.99694
6000000.00162
6000000.00306
6000000.00375
5999999.99735
5999999.99715
6000000.00148
5999999.99908
5999999.99995
6000000.00007
5999999.99994
5999999.99993
5999999.99998
6000000.00001
5999999.99991
5999999.99994
5999999.99991
5999999.99999
5999999.99931
6000000.00111
5999999.99825
5999999.99931
6000000.00146
5999999.99587
6000000.00439
6000000.00318
6000000.0016
5999999.99896
6000000.00284
6000000.00385
5999999.99837
5999999.99729
6000000.00423
5999999.99973
6000000.00383
6000000.0051
6000000.00074
6000000.00489
6000000.0002
5999999.99994
6000000.00107
6000000.00069
6000000.00019
6000000.00006
6000000.00301
5999999.99885
6000000.00115
6000000.00212
6000000.00379
6000000.00116
5999999.99636
6000000.00072
6000000.00018
5999999.99989
5999999.99945
6000000.00399
6000000.00167
5999999.99862
6000000.00173
5999999.99984
5999999.99986
6000000.00067
5999999.99931
6000000.00142
5999999.99293
6000000.00295
6000000.00251
5999999.99934
5999999.99989
6000000.00044
6000000.00025
6000000.00023
5999999.99997
6000000.00001
6000000
6000000.00001
5999999.99989
6000000.00001
5999999.99988
6000000
6000000.00001
5999999.99989
6000000.00015
6000000
5999999.99988
6000000.00001
5999999.99997
5999999.99945
5999999.99989
6000000.00009
6000000.00074
5999999.99855
5999999.99857
6000000.00041
6000000.00033
5999999.99976
6000000.00004
5999999.9994
6000000.00163
6000000.00109
6000000.00037
6000000.0002
5999999.99987
5999999.99896
6000000.00161
5999999.99615
6000000.00561
5999999.99687
5999999.99634
6000000.00434
6000000.00262
6000000.00446
6000000.00006
5999999.99996
5999999.99611
5999999.99598
5999999.99696
6000000.00036
5999999.99732
6000000.00297
5999999.9999
5999999.99875
6000000.00061
5999999.99808
6000000.00092
5999999.99805
6000000.0032
5999999.99579
5999999.99645
6000000.00538
5999999.9965
5999999.9963
5999999.99864
6000000.00076
6000000.00089
6000000.00059
6000000.00001
6000000.00058
5999999.99975
6000000.00135
5999999.99654
6000000.00097
6000000.00037
6000000.00004
5999999.99742
5999999.99949
5999999.99974
5999999.99836
5999999.99901
6000000.0003
5999999.99996
6000000.00031
6000000.00111
5999999.99899
5999999.99929
6000000.00239
5999999.99941
5999999.99995
5999999.99998
6000000.00001
6000000.00001
6000000.00011
6000000.00001
6000000.00001
6000000.00009
6000000.00046
5999999.9984
6000000.00014
5999999.99997
6000000.00001
6000000.00003
6000000.00053
5999999.99873
6000000.00173
6000000.00148
5999999.99605
6000000.00559
5999999.995
5999999.99302
6000000.00303
6000000.00377
5999999.99488
5999999.99824
5999999.99882
5999999.99981
6000000.0009
5999999.9988
6000000.00173
5999999.99799
5999999.99866
5999999.99981
5999999.99901
6000000.00122
5999999.9981
6000000.00138
6000000.00261
5999999.99623
5999999.99641
5999999.99667
5999999.99975
6000000.00505
6000000.00168
5999999.9963
5999999.9924
6000000.00421
6000000.00388
5999999.99541
5999999.99832
6000000.00324
6000000.00317
5999999.99665
5999999.9989
6000000.00215
5999999.99987
6000000.00004
6000000.00001
6000000.00001
6000000.00005
6000000.00105
5999999.99909
5999999.99912
5999999.99971
5999999.99987
6000000.00022
6000000.00003
6000000.00002
5999999.99924
5999999.99853
6000000.00062
6000000
6000000.00002
6000000.00001
5999999.99994
5999999.99981
6000000.00001
6000000.00003
5999999.99996
5999999.99914
6000000.00018
6000000.00192
5999999.9983
5999999.99994
5999999.99991
5999999.99611
6000000.00178
6000000.00064
6000000.00175
6000000.00131
6000000.0007
6000000.00027
6000000.0007
5999999.99843
6000000.00257
5999999.99831
6000000.00132
6000000.00181
6000000.0038
5999999.99924
5999999.99913
6000000.0048
6000000.00175
6000000.00186
6000000.00146
5999999.99694
5999999.99931
6000000.00101
6000000.00026
5999999.99828
5999999.99838
6000000.00076
5999999.99718
5999999.9997
5999999.99767
5999999.99996
6000000.00153
5999999.99963
5999999.99903
5999999.99918
5999999.99994
5999999.99987
6000000.00016
6000000.00006
6000000.00001
5999999.99989
6000000.0005
6000000.00105
5999999.99763
5999999.99994
6000000.00009
6000000.00001
6000000.00007
6000000.00002
6000000.00002
6000000.0007
5999999.99909
6000000.0012
6000000.00116
5999999.99771
6000000.00329
5999999.99561
5999999.99956
6000000.00251
6000000.00529
6000000.00298
6000000.00153
6000000.00142
5999999.99547
5999999.9983
5999999.99866
5999999.9997
6000000.00133
6000000.00564
5999999.9947
5999999.99654
5999999.99489
6000000.00472
6000000.00208
6000000.0023
5999999.99941
6000000.00037
6000000.0006
6000000.00083
5999999.99996
5999999.99949
5999999.99999
6000000.00001
6000000
6000000.00022
5999999.9994
6000000.00097
5999999.99905
6000000.0006
5999999.99864
5999999.99554
6000000.00081
6000000.00083
5999999.99611
5999999.99628
6000000.00402
5999999.99775
5999999.99522
6000000.0021
6000000.00531
5999999.9961
6000000.00259
5999999.99933
5999999.99933
6000000.00295
5999999.9999
6000000.00005
6000000.00001
6000000.00001
6000000.00002
6000000.00001
6000000.00002
6000000.00001
6000000.00007
6000000.00017
6000000.00022
6000000.00003
6000000.00001
6000000.00001
5999999.99995
6000000.00165
5999999.99777
6000000.00299
6000000.00411
5999999.99938
6000000.00142
6000000.00102
6000000.00153
5999999.99969
6000000.00043
5999999.99566
6000000.00063
5999999.99916
6000000.00157
6000000.00092
5999999.99932
5999999.99908
5999999.99966
5999999.99981
6000000.00002
5999999.9995
6000000.00071
6000000.00163
5999999.99901
5999999.99974
5999999.99978
6000000.00012
6000000.00002
6000000
5999999.99991
5999999.99958
6000000.00043
5999999.99972
5999999.99768
6000000.00248
5999999.99775
6000000.00212
5999999.99961
5999999.99982
5999999.99998
5999999.99954
6000000.00187
5999999.9965
6000000.0014
5999999.99976
5999999.99986
6000000.00002
5999999.99975
5999999.99996
5999999.99994
6000000.0001
5999999.99983
5999999.9993
6000000.00013
5999999.99994
5999999.99993
6000000
6000000.00008
5999999.99994
5999999.99999
6000000
5999999.99994
5999999.99997
6000000.00001
5999999.99993
6000000.00021
6000000.00001
6000000.00013
6000000.0001
6000000.00071
5999999.99902
6000000.00169
5999999.99762
6000000.00129
6000000.00091
6000000.00175
6000000.00209
5999999.99753
5999999.99983
5999999.9985
6000000.00077
5999999.99947
5999999.99869
6000000.00053
5999999.99889
5999999.99962
6000000.00003
6000000.00025
6000000.00245
6000000.0009
6000000.0026
5999999.99929
6000000.00003
6000000.00147
5999999.99595
6000000.0014
5999999.99744
6000000.00307
6000000.00298
5999999.99551
5999999.99725
5999999.99627
6000000.0041
6000000.00149
6000000.005
5999999.99816
5999999.99686
6000000.00079
5999999.99474
5999999.99635
5999999.99765
5999999.99838
6000000.00064
5999999.99689
5999999.99844
5999999.99347
5999999.99956
5999999.99563
5999999.99818
5999999.99751
5999999.99704
5999999.99742
5999999.99588
6000000.00252
6000000.00034
6000000.00056
5999999.9972
6000000.00075
5999999.99972
5999999.99989
6000000.00015
5999999.99984
5999999.99989
5999999.99718
6000000.00322
5999999.99354
5999999.99371
6000000.00207
5999999.99482
5999999.99574
6000000.00468
5999999.9961
5999999.99506
6000000.00049
6000000.00073
6000000.00007
6000000.00017
6000000.00003
6000000.00002
5999999.99984
6000000.00041
5999999.99966
6000000.00036
6000000.00017
6000000.00003
6000000.00003
5999999.99993
5999999.99994
6000000.00005
6000000.00049
5999999.99918
5999999.99949
6000000.00088
5999999.99963
5999999.99994
5999999.99988
5999999.99973
5999999.99932
6000000.00041
5999999.99996
5999999.99936
5999999.99994
5999999.99966
6000000.00014
6000000.00083
5999999.9995
6000000.0005
6000000.00124
6000000.00181
5999999.99709
5999999.99862
6000000.00169
6000000.00011
6000000.00016
6000000.00061
5999999.99846
6000000.00139
6000000.00105
6000000.0005
5999999.99945
6000000.00001
5999999.99835
6000000.00164
6000000.0003
6000000.00129
5999999.9995
5999999.99893
6000000.00326
6000000.00426
5999999.99252
5999999.99656
6000000.00254
6000000.0013
5999999.99917
6000000.0009
6000000.00024
6000000.00206
5999999.99929
6000000.00036
6000000
5999999.99992
6000000
6000000.00002
5999999.99999
5999999.99998
5999999.99999
6000000
6000000.00002
6000000.00011
6000000
6000000
6000000.00001
6000000
6000000.00011
6000000
6000000.00001
5999999.99994
5999999.99996
6000000.00011
5999999.99999
6000000
6000000.00011
6000000
6000000
5999999.99993
6000000.00001
5999999.99994
6000000.00001
6000000.00016
5999999.99965
5999999.9996
5999999.9999
6000000.00007
6000000.00221
5999999.99956
5999999.99999
5999999.99994
6000000.00004
6000000
6000000.00008
5999999.99994
6000000
6000000
5999999.99994
5999999.99991
6000000.00025
5999999.99921
6000000.00149
6000000.00024
5999999.99946
6000000.00111
5999999.99891
6000000.00179
6000000.00316
5999999.99871
6000000.00046
6000000.00503
6000000.00073
6000000.00017
6000000.00006
5999999.99988
6000000.00004
6000000.00006
6000000.00018
6000000.00004
6000000.00003
6000000.00002
5999999.99988
6000000.00015
6000000.00015
6000000.0002
6000000.00012
5999999.99989
6000000.00001
5999999.99993
6000000.00001
6000000.00002
6000000.00017
5999999.99901
5999999.99863
6000000.00339
5999999.99848
6000000.00205
5999999.99792
5999999.99918
5999999.99991
5999999.99845
5999999.99928
6000000.00173
5999999.99719
5999999.99551
6000000.00075
5999999.99524
5999999.99386
6000000.00202
5999999.99724
5999999.99981
5999999.99715
6000000.00136
6000000.00129
5999999.99844
6000000.00219
5999999.99897
5999999.99865
6000000.00114
6000000.00107
6000000.0005
5999999.99976
6000000
6000000.00005
5999999.99993
5999999.99999
6000000.00049
5999999.99991
6000000.00057
5999999.99928
5999999.99925
6000000.00022
5999999.99892
5999999.99988
5999999.99857
5999999.99915
5999999.99939
5999999.99999
5999999.99918
6000000.00206
5999999.99948
5999999.99963
5999999.99978
6000000
5999999.99999
5999999.9999
5999999.99994
6000000.00012
5999999.99998
5999999.99999
6000000.00006
5999999.99998
5999999.99998
6000000.00002
5999999.99998
6000000.00006
5999999.99991
6000000.00034
5999999.99851
5999999.99917
6000000.00019
5999999.99999
5999999.99998
5999999.99998
5999999.99998
5999999.99994
5999999.99998
5999999.99998
5999999.99993
5999999.99957
6000000.00046
5999999.99986
5999999.99998
5999999.99993
5999999.99975
6000000.00104
5999999.99955
5999999.99979
5999999.99995
6000000.00002
5999999.99994
5999999.99998
5999999.9999
5999999.99994
5999999.99998
5999999.99997
5999999.99957
6000000.00022
5999999.99919
6000000.00203
5999999.99945
6000000.00008
6000000.00002
5999999.99994
5999999.99989
6000000.00028
5999999.99988
5999999.99665
6000000.00232
6000000.00008
6000000.0001
6000000.00005
6000000.00011
6000000.00054
5999999.99901
6000000.00207
6000000.00388
6000000.00101
5999999.99889
6000000.00298
6000000.00174
5999999.99812
6000000.00328
6000000.00035
6000000.00215
5999999.99744
5999999.99805
6000000.00009
5999999.99913
6000000.00027
5999999.99819
6000000.00234
6000000.00056
5999999.99983
6000000.00035
5999999.9989
6000000.00109
5999999.99885
6000000.00181
5999999.99702
6000000.00334
6000000.00348
5999999.99817
6000000.00224
5999999.9948
5999999.99476
6000000.00318
6000000.00204
6000000.00482
5999999.99797
5999999.99774
6000000.00335
5999999.99738
5999999.99882
5999999.99917
5999999.99944
6000000.00013
5999999.99966
6000000.0001
5999999.99971
5999999.99996
5999999.99989
5999999.99896
6000000.00091
6000000.0001
5999999.99993
6000000.00032
5999999.99962
6000000.00048
5999999.99796
5999999.99966
5999999.99995
5999999.99979
5999999.99928
5999999.9989
6000000.00147
6000000.00024
5999999.99979
6000000.00425
6000000.00194
5999999.99664
6000000.00209
5999999.99927
6000000.00396
6000000.003
5999999.99654
5999999.99721
5999999.99887
6000000.00534
6000000.00228
5999999.99679
5999999.99796
5999999.99533
6000000.00208
5999999.99637
5999999.99595
5999999.99899
5999999.99491
6000000.00327
5999999.99734
5999999.9976
5999999.99901
6000000.00122
5999999.99816
5999999.99836
6000000.00166
6000000.00111
5999999.99817
5999999.9971
5999999.99684
5999999.99684
5999999.99756
5999999.99784
6000000.00004
5999999.99569
5999999.99381
6000000.00102
5999999.99923
5999999.99689
5999999.99721
5999999.9961
5999999.9954
6000000.00521
5999999.99758
5999999.99463
5999999.99932
5999999.99527
6000000.00159
6000000.00369
5999999.99365
5999999.99556
5999999.99746
6000000.0036
6000000.00168
5999999.99793
6000000.00374
6000000.00316
5999999.99945
6000000.0052
5999999.99594
5999999.9949
6000000.00295
6000000.00074
5999999.99978
5999999.99554
5999999.99702
6000000.00184
5999999.99692
5999999.99887
6000000.00198
5999999.99932
6000000.00245
6000000.00582
6000000.00262
5999999.99993
5999999.99477
5999999.99756
6000000.00608
6000000.00189
5999999.9953
5999999.99798
6000000.00056
6000000.00497
6000000.00096
5999999.99932
6000000.00037
6000000.00148
5999999.99957
5999999.99888
6000000.00309
6000000.00197
5999999.99769
6000000.00248
5999999.99706
5999999.99978
5999999.99782
6000000.00093
6000000.00155
5999999.99513
6000000
6000000.00071
5999999.99503
5999999.99809
6000000.00232
5999999.99861
5999999.9985
6000000.00223
5999999.99915
5999999.99753
5999999.9968
5999999.99892
5999999.99709
5999999.99958
5999999.99814
6000000.00592
5999999.99837
6000000.0003
6000000.00598
5999999.99824
6000000.0017
6000000.00048
6000000.00922
5999999.99782
6000000.00082
6000000.00649
6000000.00623
5999999.99914
5999999.99732
6000000.01029
6000000.00812
6000000.00553
5999999.99885
5999999.99774
6000000.00828
6000000.00892
6000000.0019
6000000.00565
6000000.00248
5999999.99439
6000000.00721
6000000.00794
6000000.00052
5999999.99777
6000000.00824
6000000.00227
5999999.99383
6000000.00243
6000000.00183
6000000.00876
6000000.00667
5999999.99776
6000000.00144
6000000.00739
5999999.99587
5999999.99874
6000000.00672
6000000.00998
6000000.0008
6000000.00579
6000000.00604
6000000.0042
5999999.99794
6000000.00149
6000000.00772
6000000.00813
6000000.00921
6000000.00295
6000000.00267
6000000.0056
6000000.00894
6000000.00029
6000000.00236
6000000.00528
5999999.99685
6000000.00526
6000000.00423
6000000.00858
6000000.0036
6000000.00797
6000000.00545
5999999.99313
6000000.0074
6000000.00163
5999999.99828
6000000.00821
5999999.99913
5999999.99953
5999999.99875
6000000.00013
5999999.99877
5999999.99994
5999999.99855
5999999.99956
5999999.9992
5999999.99982
5999999.99787
5999999.99784
5999999.99967
5999999.99811
6000000.0004
5999999.9983
5999999.99863
5999999.99775
6000000.0001
5999999.99796
5999999.99751
5999999.99895
5999999.99988
5999999.99901
5999999.99841
5999999.99917
5999999.99797
5999999.9984
5999999.99944
5999999.99612
5999999.9983
6000000.00035
5999999.99911
5999999.99677
5999999.99928
5999999.99803
5999999.99984
5999999.99876
5999999.99856
5999999.99706
5999999.99887
5999999.99971
5999999.99825
5999999.99943
5999999.99945
5999999.99856
5999999.9986
5999999.99916
5999999.99705
5999999.99641
5999999.99933
5999999.99964
6000000.00007
6000000.00031
5999999.99829
5999999.9993
5999999.99764
5999999.99811
5999999.99858
5999999.99936
5999999.99927
6000000.00034
6000000.00225
5999999.99859
5999999.9994
5999999.99943
5999999.99981
5999999.99961
6000000.00069
5999999.99971
5999999.99959
6000000.00041
5999999.99972
5999999.99969
5999999.9997
5999999.99975
6000000.00043
5999999.99997
5999999.99976
5999999.99967
6000000.00028
6000000.00043
5999999.99989
6000000.00038
5999999.99981
6000000.00046
5999999.99977
5999999.99974
6000000.00033
5999999.99998
6000000.00048
5999999.99981
5999999.99994
5999999.99957
6000000.00032
6000000.00056
6000000.00021
6000000.00054
5999999.99967
6000000.0005
6000000.00049
5999999.99968
6000000.00013
5999999.99979
6000000.00032
6000000.00001
5999999.99952
6000000.00059
6000000.00018
6000000.00042
6000000.00037
5999999.99956
5999999.99967
5999999.99981
6000000.00023
6000000.00012
6000000.00041
6000000.00047
5999999.99975
5999999.99993
6000000.00032
6000000.00005
6000000.00038
6000000.00018
6000000.00019
6000000.00057
5999999.99965
6000000.00058
6000000.00061
6000000.00089
6000000.00087
6000000.00095
6000000.0006
6000000.00092
6000000.00073
6000000.0012
6000000.00067
6000000.00077
6000000.00071
6000000.00078
6000000.00072
6000000.00072
6000000.00083
6000000.00087
6000000.00063
6000000.00081
6000000.00095
6000000.00078
6000000.00092
6000000.00104
6000000.0006
6000000.00083
6000000.00079
6000000.00076
6000000.00065
6000000.00053
6000000.00081
6000000.00082
6000000.00075
6000000.00088
6000000.00086
6000000.00105
6000000.00063
6000000.00088
6000000.00065
6000000.00068
6000000.00056
6000000.00078
6000000.00083
6000000.00093
6000000.00095
6000000.00081
6000000.00083
6000000.0009
6000000.00068
6000000.00089
6000000.00103
6000000.00105
6000000.0007
6000000.00067
6000000.00066
6000000.00087
6000000.0009
6000000.00079
6000000.0009
6000000.00095
6000000.00093
6000000.00086
6000000.00082
6000000.00106
6000000.00119
6000000.00086
5999999.99904
5999999.99891
5999999.99896
5999999.99904
5999999.99897
5999999.99933
5999999.99893
5999999.99888
5999999.99883
5999999.99882
5999999.99903
5999999.99919
5999999.99927
5999999.99892
5999999.99881
5999999.9989
5999999.99892
5999999.99912
5999999.99903
5999999.99911
5999999.99898
5999999.99891
5999999.99926
5999999.99919
5999999.99883
5999999.99896
5999999.99936
5999999.99897
5999999.99908
5999999.99913
5999999.99901
5999999.99946
5999999.99911
5999999.99913
5999999.99895
5999999.99899
5999999.99921
5999999.99882
5999999.9987
5999999.99887
5999999.99913
5999999.99911
5999999.99895
5999999.99901
5999999.99911
5999999.99898
5999999.99942
5999999.99916
5999999.99894
5999999.99907
5999999.99897
5999999.99881
5999999.99886
5999999.99884
5999999.99902
5999999.99904
5999999.99913
5999999.99911
5999999.99907
5999999.99902
5999999.99898
5999999.99905
5999999.99894
5999999.99891
5999999.99948
5999999.99935
5999999.99942
5999999.99978
5999999.99956
5999999.99967