/*--------------------------------*- C++ -*----------------------------------*\
  =========                 |
  \\      /  F ield         | OpenFOAM: The Open Source CFD Toolbox
   \\    /   O peration     | Website:  https://openfoam.org
    \\  /    A nd           | Version:  6
     \\/     M anipulation  |
\*---------------------------------------------------------------------------*/
FoamFile
{
    version     2.0;
    format      ascii;
    class       volVectorField;
    location    "4.1e-05";
    object      U;
}
// * * * * * * * * * * * * * * * * * * * * * * * * * * * * * * * * * * * * * //

dimensions      [0 1 -1 0 0 0 0];

internalField   nonuniform List<vector> 
8192
(
(-88.3220000002 0 -2.70013093337e-10)
(-88.3219999996 0 -3.63064040562e-11)
(-88.3220000001 0 -6.71831748448e-11)
(-88.3220000001 0 -1.34791638674e-10)
(-88.3219999997 0 -5.68230661984e-11)
(-88.3219999998 0 2.40129643857e-11)
(-88.3220000001 0 -1.79212378562e-12)
(-88.322 0 2.49675958058e-11)
(-88.322 0 -1.63891075906e-10)
(-88.322 0 -4.74420464176e-10)
(-88.322 0 -4.84688439608e-10)
(-88.322 0 2.76711225826e-10)
(-88.3220000001 0 5.41015751428e-10)
(-88.322 0 -5.05463623343e-10)
(-88.3219999999 0 -5.4244759703e-10)
(-88.322 0 2.54737489895e-10)
(-88.322 0 1.17420067868e-10)
(-88.322 0 4.06577037979e-10)
(-88.3220000001 0 -3.7559477945e-10)
(-88.322 0 -3.67176285198e-10)
(-88.3219999999 0 2.50832295003e-10)
(-88.3220000001 0 2.99630376101e-10)
(-88.3220000001 0 -3.379598557e-10)
(-88.3219999999 0 -4.15632487825e-10)
(-88.322 0 1.06017048907e-10)
(-88.3219999999 0 8.42114422994e-11)
(-88.3219999999 0 1.34331069804e-10)
(-88.322 0 1.01637727467e-10)
(-88.3220000002 0 1.68074643142e-10)
(-88.322 0 -7.81787776022e-11)
(-88.3219999999 0 1.33215385569e-10)
(-88.3219999999 0 1.20713496867e-11)
(-88.3219999994 0 6.36608382085e-11)
(-88.3220000011 0 3.65826056094e-10)
(-88.3220000017 0 -4.85155347282e-10)
(-88.3219999992 0 -4.60379513795e-10)
(-88.3219999999 0 -2.18794367441e-11)
(-88.3219999996 0 -4.38741942228e-10)
(-88.3219999989 0 1.68963240478e-10)
(-88.3220000004 0 9.29561895119e-11)
(-88.3220000001 0 2.06330313115e-12)
(-88.3219999999 0 1.43177255568e-11)
(-88.322 0 -1.54285937274e-11)
(-88.322 0 -1.13541829971e-11)
(-88.322 0 -4.31986285608e-11)
(-88.322 0 -2.28746915166e-11)
(-88.322 0 -1.29430289302e-11)
(-88.322 0 -6.14814993808e-12)
(-88.322 0 -3.02251208484e-13)
(-88.3219999999 0 -3.72589072355e-11)
(-88.3219999999 0 3.60337852453e-11)
(-88.3220000002 0 -4.74253294152e-12)
(-88.3219999997 0 -1.2577615568e-10)
(-88.3219999996 0 1.99752440813e-10)
(-88.3220000009 0 1.28115033899e-10)
(-88.3220000004 0 -2.03215183887e-10)
(-88.3219999999 0 -4.64793642387e-11)
(-88.3219999998 0 -1.14546933008e-10)
(-88.3220000001 0 -3.38388556287e-11)
(-88.3219999994 0 -1.76806149682e-10)
(-88.3219999989 0 2.45192295801e-10)
(-88.3219999998 0 3.2697101969e-10)
(-88.3220000006 0 3.12041231089e-10)
(-88.3220000013 0 7.26385191949e-11)
(-88.322 0 -1.44082888045e-10)
(-88.3219999999 0 -4.97240835495e-11)
(-88.3220000001 0 4.96650935117e-11)
(-88.3219999999 0 4.48887512018e-12)
(-88.322 0 9.80144910675e-11)
(-88.3220000001 0 -6.88717742756e-11)
(-88.3219999998 0 1.36741620467e-11)
(-88.3220000003 0 5.02890825329e-13)
(-88.3220000009 0 -2.30327568153e-12)
(-88.3220000006 0 -2.74253123408e-11)
(-88.3219999985 0 2.11051860049e-11)
(-88.321999998 0 -1.14132952549e-10)
(-88.3220000015 0 -1.31400477714e-11)
(-88.3220000021 0 -1.11785423518e-10)
(-88.3219999986 0 -1.9031118481e-10)
(-88.3219999988 0 1.82758867409e-10)
(-88.3219999997 0 7.47854310034e-11)
(-88.322000001 0 1.14527421469e-10)
(-88.3220000015 0 -2.17010899643e-10)
(-88.3219999988 0 -1.34200541407e-10)
(-88.3219999988 0 -6.19704574652e-12)
(-88.3220000011 0 7.42861127771e-11)
(-88.3220000012 0 1.21366329864e-10)
(-88.3219999992 0 -5.67490708308e-11)
(-88.321999999 0 3.27008747457e-10)
(-88.322 0 -2.18777769083e-10)
(-88.322 0 2.62461700702e-10)
(-88.322 0 2.12251795819e-10)
(-88.3220000002 0 2.17532381288e-11)
(-88.322 0 5.44565282838e-11)
(-88.3219999999 0 2.60741164111e-11)
(-88.3220000001 0 -1.30887122677e-11)
(-88.3219999999 0 -1.13217683796e-10)
(-88.3220000001 0 -3.15765715309e-10)
(-88.322 0 3.3546026736e-10)
(-88.3219999998 0 4.3566752734e-10)
(-88.3220000001 0 -9.01512326907e-12)
(-88.322 0 2.52343331898e-10)
(-88.322 0 -1.68302080638e-10)
(-88.322 0 -1.0841072382e-10)
(-88.322 0 3.85092915692e-11)
(-88.322 0 -2.34552639752e-11)
(-88.322 0 9.29515375493e-12)
(-88.322 0 -8.15598766075e-11)
(-88.322 0 -3.36857750221e-10)
(-88.322 0 -2.43069597459e-10)
(-88.322 0 -2.52520672182e-10)
(-88.322 0 -2.42471030931e-10)
(-88.322 0 -2.78965655664e-10)
(-88.322 0 -1.1062070619e-10)
(-88.322 0 2.32831493425e-10)
(-88.322 0 -3.84323637309e-11)
(-88.3219999999 0 2.65985354198e-11)
(-88.322 0 -4.00093895442e-11)
(-88.322 0 -2.04181398025e-10)
(-88.322 0 3.6925174371e-10)
(-88.322 0 -1.00365996271e-10)
(-88.3220000001 0 -2.16682521076e-10)
(-88.322 0 -3.68077419753e-10)
(-88.322 0 5.64169846665e-10)
(-88.322 0 1.84640477986e-10)
(-88.322 0 -7.0932081422e-10)
(-88.322 0 -8.15341774186e-10)
(-88.322 0 -3.41626665994e-10)
(-88.3219999996 0 3.54586200787e-11)
(-88.3219999992 0 3.62301209568e-11)
(-88.322 0 -1.01883206268e-11)
(-88.322 0 9.19531747249e-11)
(-88.3219999999 0 -4.89036476908e-11)
(-88.322 0 5.96397357775e-11)
(-88.322 0 -1.10946324763e-11)
(-88.322 0 -2.10112833344e-11)
(-88.3220000001 0 1.39698360429e-10)
(-88.322 0 4.47569560601e-10)
(-88.3220000001 0 4.5533791796e-10)
(-88.3220000001 0 -2.42216740415e-10)
(-88.322 0 -5.04180423472e-10)
(-88.3220000003 0 4.30594269008e-10)
(-88.3219999993 0 4.91386613028e-10)
(-88.3219999994 0 -2.61073521485e-10)
(-88.3220000001 0 -1.19465125978e-10)
(-88.3220000005 0 -3.78761099652e-10)
(-88.3220000006 0 3.82865466844e-10)
(-88.3219999996 0 3.50308595096e-10)
(-88.3219999994 0 -2.42973424841e-10)
(-88.3219999998 0 -2.2797502687e-10)
(-88.3220000004 0 3.48458277881e-10)
(-88.3219999996 0 4.0852565323e-10)
(-88.3220000003 0 -5.71561361544e-11)
(-88.322 0 -7.79908650869e-11)
(-88.321999999 0 -6.36534096905e-11)
(-88.3220000005 0 2.40564713735e-11)
(-88.3220000005 0 3.35799486236e-11)
(-88.322 0 -2.08267016881e-11)
(-88.3220000001 0 9.0444203215e-11)
(-88.3220000002 0 -1.56123804592e-11)
(-88.322 0 -3.16020143204e-10)
(-88.322 0 2.94840322926e-10)
(-88.3220000001 0 4.17682516598e-10)
(-88.322 0 -1.92089298132e-10)
(-88.3220000003 0 -4.52310455255e-10)
(-88.322 0 5.95208923896e-10)
(-88.3219999997 0 3.22556413754e-10)
(-88.322 0 -3.34572428053e-10)
(-88.322 0 -3.25882845352e-10)
(-88.322 0 7.83289049526e-11)
(-88.3220000002 0 -1.98826797711e-10)
(-88.3220000008 0 -5.17878529215e-11)
(-88.3220000003 0 -2.18781660382e-10)
(-88.3219999998 0 3.70070250809e-11)
(-88.322 0 -3.78225654874e-10)
(-88.3219999999 0 -5.2643493211e-10)
(-88.3219999997 0 3.07069650215e-10)
(-88.321999999 0 2.79424965731e-12)
(-88.3219999998 0 -2.2122884571e-10)
(-88.3220000007 0 1.11487190448e-10)
(-88.3219999997 0 -3.41825650944e-10)
(-88.322 0 3.05087022632e-10)
(-88.322 0 -2.85601775594e-12)
(-88.3220000002 0 -2.7922393562e-10)
(-88.322000001 0 -2.54738198712e-10)
(-88.3220000004 0 -2.59610942951e-10)
(-88.3219999986 0 -1.36447859921e-10)
(-88.3219999984 0 -1.16386378111e-10)
(-88.3220000015 0 -1.24368775155e-10)
(-88.3220000018 0 6.2571486177e-11)
(-88.3219999998 0 2.55791250493e-11)
(-88.3219999999 0 3.34697408604e-11)
(-88.322 0 4.56793467789e-10)
(-88.322 0 1.27886204267e-10)
(-88.322 0 1.95848751065e-11)
(-88.322 0 9.6484085281e-11)
(-88.322 0 -8.27304050547e-11)
(-88.322 0 2.0957823448e-11)
(-88.322 0 4.19523849716e-12)
(-88.322 0 2.35311224238e-11)
(-88.322 0 1.06097568916e-11)
(-88.322 0 5.72197765553e-11)
(-88.3219999999 0 5.74431913027e-13)
(-88.3219999999 0 8.56779880673e-11)
(-88.3220000001 0 9.5160593648e-12)
(-88.3220000001 0 1.81681615618e-10)
(-88.3219999999 0 2.20862217619e-10)
(-88.322 0 -1.78005388113e-10)
(-88.322 0 -7.22467811001e-11)
(-88.322 0 -1.66383754944e-10)
(-88.322 0 2.78086168323e-10)
(-88.322 0 3.06973133586e-10)
(-88.322 0 -3.44396306886e-10)
(-88.322 0 -4.96945629839e-10)
(-88.322 0 2.47274394879e-10)
(-88.322 0 3.42078702701e-10)
(-88.322 0 -1.36884413677e-10)
(-88.322 0 4.42779640194e-10)
(-88.3219999998 0 -1.762658544e-10)
(-88.3219999998 0 -1.74595310012e-11)
(-88.3220000003 0 -1.07020276066e-10)
(-88.3219999999 0 -1.41678076336e-10)
(-88.3219999999 0 2.05814528547e-11)
(-88.322000001 0 -5.348203435e-11)
(-88.3219999993 0 -3.03335512222e-12)
(-88.3219999987 0 -3.46603357538e-11)
(-88.322000001 0 3.55281990687e-11)
(-88.3220000015 0 5.95396847514e-11)
(-88.3219999985 0 -3.38005101281e-11)
(-88.3219999985 0 2.3923368481e-10)
(-88.3220000018 0 -4.05508888656e-12)
(-88.3220000012 0 1.6472354755e-11)
(-88.3219999992 0 -2.82628530711e-11)
(-88.3219999998 0 -1.25316610187e-11)
(-88.3220000002 0 -1.73945470177e-11)
(-88.3220000001 0 8.38273064221e-11)
(-88.3219999998 0 3.65391688071e-10)
(-88.3220000003 0 2.43532553237e-10)
(-88.3220000011 0 2.53458347682e-10)
(-88.3219999986 0 1.78487176065e-10)
(-88.3219999991 0 3.58433493562e-10)
(-88.322000001 0 1.79209500384e-10)
(-88.3219999998 0 -2.55993935264e-10)
(-88.3220000003 0 9.13317482869e-11)
(-88.3219999995 0 -1.10713567982e-10)
(-88.3219999993 0 2.40557534851e-10)
(-88.3220000012 0 4.1715866677e-10)
(-88.3220000005 0 -4.45892602321e-10)
(-88.322 0 -7.2318165896e-11)
(-88.3219999998 0 3.59676928791e-10)
(-88.3219999997 0 1.17879687978e-10)
(-88.3219999998 0 -3.25558419903e-10)
(-88.3219999996 0 -6.90723611523e-10)
(-88.3219999998 0 7.36660361414e-10)
(-88.3220000001 0 6.57919376439e-10)
(-88.322 0 4.76184507658e-10)
(-88.3220000003 0 -2.47682677668e-10)
(-88.3220000001 0 -5.72464636853e-11)
(-88.322 0 9.93640495559e-11)
(-88.3220000002 0 -5.33915537265e-12)
(-88.322 0 -2.8178764321e-11)
(-88.3219999998 0 -2.92240629546e-13)
(-88.322 0 1.53763277184e-11)
(-88.322 0 2.10605920317e-11)
(-88.322 0 1.65892369303e-11)
(-88.322 0 5.99661417368e-13)
(-88.322 0 2.7091836459e-11)
(-88.322 0 -1.17955219917e-10)
(-88.3219999999 0 -1.34324072712e-10)
(-88.322 0 -4.12227488125e-12)
(-88.3220000001 0 -4.92390359592e-12)
(-88.322 0 1.57888918596e-11)
(-88.3220000001 0 6.39024074569e-11)
(-88.3219999998 0 7.58177438687e-11)
(-88.3219999997 0 -2.55807148784e-12)
(-88.3220000009 0 1.10245296307e-11)
(-88.322000001 0 1.46533497214e-11)
(-88.3219999987 0 2.58656938204e-12)
(-88.3219999987 0 3.10846944877e-11)
(-88.3220000003 0 -1.01065693659e-10)
(-88.3220000001 0 5.71681309145e-11)
(-88.3220000001 0 4.94158329379e-12)
(-88.322 0 1.63798750832e-10)
(-88.3220000003 0 2.1453677915e-10)
(-88.3220000007 0 2.44508460007e-10)
(-88.3219999997 0 5.02960587358e-12)
(-88.3219999998 0 1.63401421706e-10)
(-88.3220000002 0 2.63847173653e-10)
(-88.322 0 -2.02086884522e-11)
(-88.322 0 -3.86489755601e-10)
(-88.322 0 -5.76121787726e-10)
(-88.3220000001 0 1.16244942222e-11)
(-88.3219999999 0 5.80998790515e-10)
(-88.322 0 -7.54125743243e-10)
(-88.3220000001 0 -2.73154047504e-10)
(-88.322 0 2.26190656607e-10)
(-88.322 0 2.80516660069e-10)
(-88.322 0 -7.14504590612e-11)
(-88.322 0 1.77532847537e-10)
(-88.322 0 5.21728102482e-11)
(-88.322 0 1.96522053582e-10)
(-88.322 0 -3.14566708446e-11)
(-88.3220000001 0 3.74060472201e-10)
(-88.3219999998 0 4.79407707916e-10)
(-88.3219999998 0 -2.76431570873e-10)
(-88.3220000002 0 -4.80852632911e-11)
(-88.322 0 1.69047316902e-10)
(-88.3220000004 0 -2.46600207021e-11)
(-88.3219999995 0 2.74596465714e-10)
(-88.321999999 0 -2.7443959354e-10)
(-88.3220000013 0 -2.93585206649e-11)
(-88.3220000012 0 -1.74090238629e-10)
(-88.3219999994 0 3.45443263097e-11)
(-88.322 0 1.27062807897e-10)
(-88.3219999998 0 -2.97121116583e-10)
(-88.322 0 5.57680256456e-10)
(-88.3219999994 0 4.2666707367e-10)
(-88.3219999991 0 2.92013208614e-10)
(-88.3220000002 0 1.24471281496e-10)
(-88.3220000002 0 4.22699128474e-11)
(-88.3220000002 0 -5.10545219956e-11)
(-88.3219999993 0 -1.33466875724e-10)
(-88.322 0 2.4607037915e-10)
(-88.3220000002 0 4.4204767556e-10)
(-88.322 0 -1.01686767617e-10)
(-88.322 0 3.92851096489e-10)
(-88.322 0 3.31671572147e-10)
(-88.322 0 -2.82079188195e-10)
(-88.322 0 -1.71732403749e-11)
(-88.322 0 6.80700800708e-11)
(-88.3220000001 0 -1.1957529551e-11)
(-88.3220000001 0 8.23649473173e-11)
(-88.3219999999 0 1.04553859225e-10)
(-88.3219999999 0 -2.68980317149e-10)
(-88.3219999999 0 3.9728976788e-10)
(-88.3219999999 0 3.40177724831e-10)
(-88.3219999999 0 3.32908465987e-10)
(-88.3220000001 0 9.80357891886e-11)
(-88.3220000001 0 -3.69998295609e-10)
(-88.322 0 -1.86292754677e-10)
(-88.322 0 6.69255189457e-10)
(-88.3219999999 0 8.31986468074e-10)
(-88.3220000002 0 -4.51097367074e-10)
(-88.3219999999 0 -4.77089250853e-10)
(-88.3219999999 0 -3.05313687139e-10)
(-88.3219999998 0 4.04275694629e-11)
(-88.3219999994 0 9.77761678143e-11)
(-88.3219999996 0 -2.42298215676e-10)
(-88.3220000008 0 3.48021318294e-10)
(-88.322 0 3.86185537901e-10)
(-88.3219999994 0 3.40646203039e-12)
(-88.3220000014 0 -3.09003998971e-10)
(-88.3220000005 0 6.25536177246e-11)
(-88.3219999997 0 6.21978478203e-11)
(-88.3220000002 0 6.87882330643e-11)
(-88.3219999993 0 -4.21257162433e-11)
(-88.3220000001 0 -2.71700453067e-12)
(-88.3220000001 0 -2.64801840453e-11)
(-88.3219999999 0 8.11897123323e-12)
(-88.3220000001 0 1.99903909676e-11)
(-88.3219999998 0 2.28235968962e-11)
(-88.322 0 -9.08744957952e-12)
(-88.322 0 6.56264697879e-12)
(-88.322 0 5.31294784487e-12)
(-88.322 0 3.92085879246e-12)
(-88.322 0 4.18887579322e-12)
(-88.3220000001 0 -2.79516039341e-11)
(-88.3219999999 0 1.54063495752e-10)
(-88.3220000001 0 -1.03668760906e-10)
(-88.3220000001 0 -5.93124116387e-11)
(-88.3219999998 0 -1.19711517782e-12)
(-88.3220000002 0 -2.52895673504e-11)
(-88.322 0 1.94578111089e-10)
(-88.3219999999 0 -3.66609050611e-10)
(-88.322000001 0 -3.32670269385e-10)
(-88.3220000002 0 2.77242513394e-10)
(-88.3219999994 0 2.17600424017e-10)
(-88.3220000005 0 2.17183417746e-11)
(-88.3219999989 0 2.80955850555e-10)
(-88.3219999984 0 -5.91385835455e-11)
(-88.3220000002 0 2.87217322019e-10)
(-88.3220000004 0 -2.74150136899e-10)
(-88.3220000006 0 -7.40474941597e-11)
(-88.3220000007 0 -1.87059860343e-10)
(-88.3220000002 0 3.27454191675e-10)
(-88.3219999995 0 1.90817016198e-11)
(-88.3219999989 0 -1.1516101599e-10)
(-88.322000001 0 2.23627096087e-11)
(-88.3220000001 0 1.00186675288e-11)
(-88.3219999989 0 1.79457226927e-11)
(-88.3220000014 0 -4.62912049122e-11)
(-88.3220000007 0 2.92277587243e-11)
(-88.3219999994 0 -8.36461983869e-11)
(-88.322 0 -1.43431884826e-10)
(-88.322 0 3.57174055596e-10)
(-88.3219999998 0 -3.66551363883e-10)
(-88.3220000006 0 -3.8869275904e-10)
(-88.3219999994 0 -6.64462786918e-11)
(-88.3219999988 0 -1.08545844617e-10)
(-88.3220000001 0 -2.93184736444e-11)
(-88.3220000006 0 -9.67620580033e-11)
(-88.3220000013 0 -6.90510735227e-11)
(-88.3220000002 0 5.27916736323e-12)
(-88.3219999987 0 -6.09338683586e-12)
(-88.321999999 0 3.41975389024e-13)
(-88.3220000009 0 -5.07288703338e-12)
(-88.3220000014 0 -9.36709672237e-12)
(-88.322 0 6.22258719461e-11)
(-88.3219999991 0 -6.14650305914e-11)
(-88.3219999993 0 2.89579122345e-11)
(-88.3220000006 0 -1.90866535762e-10)
(-88.3219999997 0 -2.34495104423e-10)
(-88.3219999994 0 -4.03895969364e-10)
(-88.3220000004 0 1.39654566922e-10)
(-88.3220000013 0 -3.3035249357e-10)
(-88.3220000002 0 -3.02558574979e-10)
(-88.3219999992 0 5.95048847035e-10)
(-88.3219999999 0 1.673725293e-10)
(-88.3220000002 0 -1.44308306081e-10)
(-88.3220000002 0 -2.42011651798e-10)
(-88.3219999999 0 -1.44747184548e-10)
(-88.3219999999 0 4.88750895945e-10)
(-88.322 0 -5.75660825727e-11)
(-88.322 0 -1.22848649624e-10)
(-88.322 0 2.27224515452e-11)
(-88.322 0 4.07968303324e-11)
(-88.322 0 -7.7436390159e-11)
(-88.322 0 2.76000755501e-11)
(-88.322 0 2.58580409799e-11)
(-88.322 0 3.590058408e-12)
(-88.3219999998 0 2.42510518369e-12)
(-88.322 0 -9.48692171872e-12)
(-88.3220000002 0 1.4764631174e-11)
(-88.322 0 -1.06862732524e-11)
(-88.3219999999 0 5.48349425264e-11)
(-88.3220000001 0 -3.0268364182e-11)
(-88.3220000001 0 6.75586833397e-11)
(-88.3219999999 0 -7.91864092547e-11)
(-88.322 0 3.98912393447e-11)
(-88.3220000001 0 3.07246145149e-10)
(-88.3219999999 0 8.87102581801e-11)
(-88.322 0 4.67885496842e-11)
(-88.322 0 4.19561776306e-10)
(-88.322 0 -3.86237535552e-10)
(-88.3219999999 0 -2.78259419425e-10)
(-88.3219999999 0 9.67984542319e-11)
(-88.3220000001 0 1.68691511241e-10)
(-88.3220000002 0 -8.42841178793e-11)
(-88.322 0 5.56712495594e-11)
(-88.3220000002 0 1.27749643345e-10)
(-88.3219999999 0 -2.3856398425e-10)
(-88.322 0 -4.46491751486e-10)
(-88.322 0 2.0753454037e-10)
(-88.322 0 -4.08588238168e-10)
(-88.3219999999 0 -3.38506085835e-10)
(-88.3220000001 0 2.81508988769e-10)
(-88.3220000004 0 1.39021255345e-11)
(-88.321999999 0 -8.7264934881e-11)
(-88.3220000006 0 3.3018412054e-11)
(-88.3220000017 0 -8.54998373438e-11)
(-88.3219999994 0 -7.95335196902e-11)
(-88.3219999993 0 2.23170853422e-10)
(-88.3219999998 0 -4.02580236429e-10)
(-88.3219999999 0 -3.15796296843e-10)
(-88.3219999999 0 -3.23488028691e-10)
(-88.3219999999 0 -5.05875282572e-11)
(-88.322 0 2.85788958685e-10)
(-88.322 0 2.45605497719e-11)
(-88.322 0 -3.19833497517e-10)
(-88.322 0 -4.63196351616e-10)
(-88.3220000001 0 1.13551679083e-10)
(-88.322 0 2.10495690941e-10)
(-88.3219999999 0 1.21036148154e-10)
(-88.3220000001 0 -2.49601014401e-10)
(-88.3219999999 0 -2.15277876269e-10)
(-88.3220000001 0 1.66784466126e-11)
(-88.322 0 -3.44692452928e-10)
(-88.322 0 -2.88662913865e-10)
(-88.3220000002 0 -1.14002137915e-10)
(-88.3219999995 0 3.49101045347e-10)
(-88.3219999997 0 -3.81599767701e-11)
(-88.3220000013 0 -3.26250623001e-11)
(-88.3220000011 0 -7.91703101646e-11)
(-88.3219999992 0 -2.6963338256e-11)
(-88.3219999985 0 1.13396821671e-10)
(-88.322 0 -1.5694886155e-11)
(-88.3220000011 0 2.47429081415e-11)
(-88.322 0 -1.91618068581e-11)
(-88.3219999995 0 -8.60529597501e-12)
(-88.3220000002 0 2.4062875291e-11)
(-88.322 0 3.61487492942e-13)
(-88.3219999998 0 -8.25407998645e-12)
(-88.322 0 -2.8773900898e-11)
(-88.322 0 -1.53190627242e-11)
(-88.3220000001 0 2.55849292994e-11)
(-88.3219999999 0 -1.00357685142e-10)
(-88.3220000001 0 2.19105046551e-11)
(-88.322 0 4.02739397087e-11)
(-88.3219999998 0 -6.79603235218e-11)
(-88.3220000001 0 -4.15484930962e-11)
(-88.322 0 3.23677596149e-11)
(-88.322 0 3.76227555438e-10)
(-88.3220000003 0 3.8768685102e-10)
(-88.3220000001 0 -2.89330271554e-10)
(-88.3219999999 0 -2.42337529038e-10)
(-88.3219999999 0 -9.54990244786e-11)
(-88.3219999997 0 -3.49814387451e-10)
(-88.3219999998 0 1.05096291781e-10)
(-88.3219999992 0 -3.08815622003e-10)
(-88.3219999995 0 3.00514362029e-10)
(-88.322000001 0 -7.80022401375e-11)
(-88.3220000004 0 8.51392222235e-11)
(-88.3220000001 0 -1.73166341605e-10)
(-88.3220000001 0 -3.03714521242e-11)
(-88.322 0 -3.57957898191e-11)
(-88.322 0 -2.14528920618e-11)
(-88.322 0 -4.03264428372e-11)
(-88.322 0 3.17217689243e-11)
(-88.322 0 1.87976344584e-11)
(-88.322 0 -5.21664664573e-11)
(-88.322 0 7.97940644187e-11)
(-88.322 0 1.29003460829e-10)
(-88.322 0 -3.85783202733e-10)
(-88.322 0 4.56693227347e-10)
(-88.322 0 4.99782850425e-10)
(-88.322 0 9.74312365249e-11)
(-88.322 0 1.06592439836e-10)
(-88.322 0 1.22957067953e-11)
(-88.322 0 3.3981461307e-11)
(-88.322 0 -6.68742673562e-13)
(-88.322 0 9.37449249533e-12)
(-88.322 0 1.39508212028e-12)
(-88.322 0 -1.3852573037e-11)
(-88.322 0 1.4992653377e-11)
(-88.322 0 1.41866794493e-11)
(-88.322 0 4.84559734114e-11)
(-88.322 0 -1.94951768829e-11)
(-88.322 0 -3.28561315816e-11)
(-88.322 0 2.07242996985e-11)
(-88.322 0 -1.70478868268e-11)
(-88.322 0 5.38346734314e-12)
(-88.322 0 -7.88158698227e-11)
(-88.322 0 3.39938308476e-11)
(-88.322 0 -8.95109397346e-12)
(-88.322 0 -1.15128335573e-10)
(-88.322 0 2.11028981509e-10)
(-88.3220000002 0 3.43584018373e-12)
(-88.3219999999 0 7.24267326137e-11)
(-88.3219999999 0 -9.19631435256e-11)
(-88.3220000001 0 -6.33420798105e-10)
(-88.322 0 9.63479631247e-11)
(-88.322 0 2.33987833193e-10)
(-88.322 0 1.85072436428e-12)
(-88.322 0 -3.89942261515e-11)
(-88.322 0 8.63202952209e-11)
(-88.322 0 -4.5153336087e-11)
(-88.322 0 -1.81820497205e-11)
(-88.322 0 -1.633309613e-11)
(-88.322 0 -2.60929808591e-11)
(-88.322 0 5.7772728838e-11)
(-88.3219999999 0 3.30890772113e-12)
(-88.3220000001 0 9.30907115829e-11)
(-88.3220000001 0 -2.44537175072e-11)
(-88.3219999998 0 -2.21103277155e-11)
(-88.3219999993 0 -8.26207051509e-11)
(-88.3219999993 0 8.1417673844e-11)
(-88.3220000014 0 8.73613521463e-11)
(-88.3220000014 0 -2.30623195168e-10)
(-88.3219999995 0 -8.98028419984e-11)
(-88.3220000002 0 -9.75835062303e-11)
(-88.3219999996 0 -5.84264134886e-11)
(-88.3219999998 0 1.54558378057e-11)
(-88.3219999995 0 6.96817960762e-11)
(-88.3219999994 0 -8.19183803197e-10)
(-88.3220000005 0 -5.85535599699e-10)
(-88.322 0 -1.91875900687e-10)
(-88.3219999997 0 5.2185551469e-11)
(-88.3219999999 0 1.05899224182e-10)
(-88.3219999999 0 -9.05316493687e-11)
(-88.322 0 -2.91447428454e-11)
(-88.3219999999 0 2.71694485562e-11)
(-88.3219999999 0 3.20208868633e-11)
(-88.3220000001 0 -5.79903513792e-11)
(-88.322 0 -7.28244420713e-11)
(-88.322 0 -2.48740113646e-11)
(-88.322 0 -3.25649409581e-11)
(-88.322 0 -1.18567824102e-11)
(-88.322 0 -1.07385736062e-11)
(-88.322 0 -6.90200022244e-12)
(-88.322 0 -1.14903824995e-11)
(-88.322 0 -1.88934184644e-11)
(-88.322 0 -2.06903557738e-11)
(-88.322 0 -1.55762762074e-11)
(-88.322 0 -9.3318470414e-12)
(-88.322 0 3.44120777623e-11)
(-88.322 0 -1.27714035162e-10)
(-88.3219999999 0 -5.01611373262e-11)
(-88.3219999999 0 3.01685550553e-10)
(-88.322 0 2.40691691833e-10)
(-88.3220000001 0 -3.72243938102e-10)
(-88.322 0 -3.07495749546e-10)
(-88.322 0 -1.18551637221e-10)
(-88.322 0 3.00333120474e-11)
(-88.3220000001 0 -1.04766209624e-10)
(-88.3220000001 0 6.47216791724e-11)
(-88.322 0 -1.22823816636e-10)
(-88.322 0 -3.64861998237e-10)
(-88.3219999999 0 -2.5574003863e-10)
(-88.3219999992 0 8.52569041883e-11)
(-88.3220000009 0 -3.32754084507e-10)
(-88.3220000013 0 -3.76039657884e-10)
(-88.3219999994 0 -3.71360463298e-10)
(-88.322 0 3.75773748799e-10)
(-88.3219999996 0 3.05249995173e-10)
(-88.3219999993 0 -3.32335134515e-10)
(-88.3220000002 0 -2.43442653274e-10)
(-88.322 0 3.81457265434e-10)
(-88.322 0 7.3971366223e-11)
(-88.322 0 -2.59454285972e-10)
(-88.322 0 -4.13027434797e-10)
(-88.322 0 2.48134232831e-10)
(-88.3220000001 0 -2.13051406855e-10)
(-88.322 0 -9.99175814636e-12)
(-88.3219999999 0 -4.33628926312e-10)
(-88.322 0 4.03801901087e-10)
(-88.322 0 -5.12731301202e-11)
(-88.322 0 3.62565708733e-11)
(-88.3220000003 0 1.22556253926e-10)
(-88.3219999998 0 -2.74284830883e-10)
(-88.3219999996 0 -6.42609870755e-10)
(-88.3220000009 0 -7.13287075827e-10)
(-88.3220000005 0 -2.26890105678e-10)
(-88.3219999997 0 7.19904979718e-10)
(-88.3219999999 0 4.51946604095e-10)
(-88.3219999995 0 -6.94262998267e-11)
(-88.3219999996 0 -4.55679158561e-10)
(-88.3220000009 0 4.74104028994e-10)
(-88.3220000008 0 -1.44673567442e-11)
(-88.3219999997 0 -1.28697150362e-10)
(-88.3219999997 0 1.40281051428e-12)
(-88.322 0 9.39506205183e-11)
(-88.3220000004 0 5.51293524221e-11)
(-88.3220000003 0 1.0557991976e-10)
(-88.3219999998 0 -1.44270765187e-10)
(-88.3219999999 0 8.54932621733e-11)
(-88.3220000001 0 -1.58401335034e-10)
(-88.3220000001 0 1.03443267976e-10)
(-88.3219999999 0 1.24794318572e-10)
(-88.322 0 -1.29879475594e-10)
(-88.322 0 -3.15990407019e-10)
(-88.322 0 -1.43068910537e-10)
(-88.322 0 -3.48810752108e-10)
(-88.322 0 -3.77499953015e-10)
(-88.322 0 -1.97943367601e-10)
(-88.322 0 6.9159700273e-11)
(-88.322 0 3.06507629715e-11)
(-88.322 0 6.34608859556e-11)
(-88.3219999999 0 -2.18925991104e-10)
(-88.3220000003 0 -4.8083281735e-10)
(-88.3220000001 0 2.32312471518e-10)
(-88.3219999991 0 2.74530837368e-10)
(-88.3219999995 0 5.65472266193e-10)
(-88.3220000014 0 -3.14652686811e-10)
(-88.322000001 0 -2.34100619131e-10)
(-88.3219999995 0 2.21360667161e-10)
(-88.3219999994 0 1.89088640552e-10)
(-88.3219999999 0 1.99252282883e-10)
(-88.322 0 8.80785790568e-11)
(-88.3220000001 0 1.60600885092e-10)
(-88.3220000008 0 8.10140680173e-11)
(-88.3220000002 0 -1.1406200313e-11)
(-88.3219999991 0 5.38703352484e-11)
(-88.3220000001 0 -7.44941053537e-11)
(-88.3220000009 0 -3.38701595582e-10)
(-88.3220000003 0 3.73710057714e-10)
(-88.3219999984 0 5.24214678518e-10)
(-88.3219999985 0 3.1592454974e-10)
(-88.3220000014 0 5.58209776824e-10)
(-88.3220000011 0 -2.84900240625e-10)
(-88.3219999987 0 -1.30617100133e-12)
(-88.3219999994 0 7.21142579834e-12)
(-88.3220000013 0 -2.61139537879e-11)
(-88.3220000009 0 3.72044878623e-11)
(-88.321999999 0 -3.83973835381e-11)
(-88.3219999996 0 1.57604835438e-11)
(-88.3220000005 0 -6.25943205873e-11)
(-88.3220000004 0 -1.74382961402e-10)
(-88.3219999991 0 1.59255540366e-10)
(-88.3219999991 0 1.91554955676e-10)
(-88.3220000009 0 2.72152850727e-10)
(-88.3219999997 0 -2.83503434684e-10)
(-88.3220000004 0 -3.06064746376e-10)
(-88.3220000007 0 3.86675014544e-10)
(-88.3220000001 0 9.85432788131e-12)
(-88.3220000006 0 7.55663476206e-11)
(-88.3219999986 0 2.94667577208e-10)
(-88.3219999982 0 4.3047148303e-10)
(-88.3220000017 0 4.37621557383e-10)
(-88.3220000014 0 -1.42264125783e-10)
(-88.3219999987 0 -1.84954373357e-10)
(-88.3219999986 0 -1.79799776389e-10)
(-88.3220000006 0 3.42194704805e-10)
(-88.3220000005 0 2.70409604778e-10)
(-88.3219999996 0 2.10897001661e-10)
(-88.322 0 -1.18032659601e-10)
(-88.3219999999 0 -1.60641303129e-10)
(-88.3220000002 0 7.06696492419e-11)
(-88.322 0 -2.03727788421e-11)
(-88.3219999999 0 -1.92968918053e-11)
(-88.3219999999 0 -4.76095270597e-11)
(-88.3219999996 0 4.57471164728e-11)
(-88.3220000004 0 4.26942726763e-11)
(-88.3220000009 0 1.63601730956e-11)
(-88.322 0 -1.73984385988e-11)
(-88.322 0 -1.32483795904e-10)
(-88.3220000004 0 -2.53928862959e-11)
(-88.3219999998 0 -5.11961174083e-11)
(-88.3219999992 0 -5.06011218797e-11)
(-88.3219999995 0 3.21379313524e-11)
(-88.322 0 -4.32804530088e-11)
(-88.3220000005 0 -1.57031039419e-11)
(-88.3220000011 0 6.91340688889e-12)
(-88.3219999992 0 -5.30630667617e-11)
(-88.3219999985 0 1.38172900934e-10)
(-88.3219999992 0 2.6157948376e-11)
(-88.3220000011 0 -2.35092666487e-10)
(-88.3220000017 0 -1.81721658122e-10)
(-88.3219999991 0 2.81314623878e-10)
(-88.3219999992 0 3.52400541028e-10)
(-88.322 0 1.23429248899e-10)
(-88.3220000001 0 -2.2780521334e-11)
(-88.3220000001 0 1.08363024335e-10)
(-88.3220000001 0 -4.48532486872e-11)
(-88.3220000003 0 1.30494379837e-10)
(-88.3220000001 0 3.62868610232e-10)
(-88.322 0 2.57666412739e-10)
(-88.322 0 -9.54360641022e-11)
(-88.3220000001 0 3.66452396173e-10)
(-88.3219999997 0 3.00144568301e-10)
(-88.3219999995 0 4.60980316773e-10)
(-88.3219999999 0 -4.01148198026e-10)
(-88.3220000008 0 -2.88637818728e-10)
(-88.3220000004 0 4.23833787667e-10)
(-88.3219999996 0 2.42025944735e-10)
(-88.322 0 -3.72515753718e-10)
(-88.322 0 -6.88344049166e-11)
(-88.322 0 2.51619890766e-10)
(-88.322 0 4.15499694656e-10)
(-88.322 0 -3.05801467529e-10)
(-88.3220000004 0 1.95322779583e-10)
(-88.3219999996 0 -9.42379328867e-12)
(-88.3219999991 0 4.29140090147e-10)
(-88.3219999998 0 -4.13368572929e-10)
(-88.3220000011 0 1.95245708438e-11)
(-88.3220000012 0 6.54622352446e-11)
(-88.3219999989 0 -3.0128370722e-10)
(-88.3219999992 0 8.5687036713e-11)
(-88.3220000002 0 5.54399753381e-10)
(-88.3220000003 0 4.9457870764e-10)
(-88.3219999998 0 2.33166320229e-10)
(-88.3219999994 0 -3.52646029051e-10)
(-88.3220000009 0 -4.65790772003e-10)
(-88.3220000007 0 3.96848801257e-10)
(-88.3219999997 0 3.172789959e-10)
(-88.3219999999 0 -2.12571630749e-10)
(-88.3219999999 0 -3.67806891074e-10)
(-88.3219999999 0 8.85779806513e-11)
(-88.322 0 -1.19638218468e-10)
(-88.322 0 -8.07761253851e-12)
(-88.322 0 5.60504394449e-11)
(-88.322 0 -8.11155832557e-11)
(-88.322 0 1.39993802641e-10)
(-88.322 0 -3.69447737103e-11)
(-88.322 0 1.16485482353e-10)
(-88.322 0 -1.21547173022e-10)
(-88.322 0 -7.71075207922e-11)
(-88.3220000001 0 -1.15165327423e-10)
(-88.3220000002 0 -8.61412509712e-12)
(-88.322 0 2.23326639646e-10)
(-88.3219999999 0 1.19859146724e-10)
(-88.322 0 -8.11135364071e-11)
(-88.3219999999 0 -1.82892375512e-10)
(-88.322 0 5.34446138974e-11)
(-88.3220000001 0 6.62240888733e-11)
(-88.3219999999 0 -1.11358810993e-10)
(-88.322 0 2.24268401411e-10)
(-88.322 0 4.76982499981e-10)
(-88.322 0 -2.23457355951e-10)
(-88.3219999999 0 -2.84571369847e-10)
(-88.3219999998 0 -5.79852228253e-10)
(-88.3220000003 0 2.63965734295e-10)
(-88.322 0 2.20714624812e-10)
(-88.3219999998 0 -2.20679406559e-10)
(-88.3220000001 0 -1.86820100699e-10)
(-88.322 0 -2.06875289812e-10)
(-88.322 0 -1.30550489909e-10)
(-88.322 0 -1.3327336832e-10)
(-88.322 0 -6.61327650645e-11)
(-88.322 0 5.24701695517e-11)
(-88.322 0 9.54683138464e-11)
(-88.3219999999 0 -1.18626359284e-10)
(-88.3220000001 0 2.08774917889e-10)
(-88.3220000001 0 -2.46214906907e-10)
(-88.3219999998 0 -3.9787236131e-10)
(-88.322 0 -3.51102720394e-10)
(-88.3219999999 0 -2.32325549406e-11)
(-88.3220000001 0 -1.37210747277e-10)
(-88.3220000003 0 -3.47314553242e-10)
(-88.322 0 2.18176783184e-10)
(-88.322 0 2.46252301296e-10)
(-88.322 0 -2.80743857341e-10)
(-88.3220000001 0 7.62660945029e-12)
(-88.322 0 -3.96418755864e-10)
(-88.3219999999 0 -3.64648130934e-10)
(-88.322 0 -1.16433831347e-12)
(-88.322 0 -4.9847292014e-10)
(-88.322 0 -2.80186906585e-10)
(-88.3219999999 0 -3.12894023396e-10)
(-88.3220000003 0 1.96599752811e-10)
(-88.3220000004 0 2.82272874003e-10)
(-88.3219999991 0 -3.63831687055e-10)
(-88.3219999993 0 -3.41181310963e-11)
(-88.3220000012 0 -3.21876295183e-10)
(-88.3220000003 0 2.40084373153e-10)
(-88.3219999996 0 -3.51522692163e-10)
(-88.3220000002 0 -6.57285735059e-10)
(-88.3219999999 0 -2.11204871412e-10)
(-88.3219999999 0 2.57745304434e-11)
(-88.322 0 1.61222533782e-10)
(-88.322 0 3.25258804296e-11)
(-88.322 0 2.82324474949e-12)
(-88.322 0 5.62035245843e-12)
(-88.3219999999 0 6.66582003433e-11)
(-88.3220000001 0 -2.26024513064e-10)
(-88.3220000001 0 -7.72199964044e-11)
(-88.3219999999 0 3.04478329882e-11)
(-88.322 0 -6.22260384943e-11)
(-88.322 0 -7.21342625806e-12)
(-88.3219999999 0 1.56534740043e-11)
(-88.3220000005 0 -3.92406465618e-11)