/*--------------------------------*- C++ -*----------------------------------*\
  =========                 |
  \\      /  F ield         | OpenFOAM: The Open Source CFD Toolbox
   \\    /   O peration     | Website:  https://openfoam.org
    \\  /    A nd           | Version:  6
     \\/     M anipulation  |
\*---------------------------------------------------------------------------*/
FoamFile
{
    version     2.0;
    format      ascii;
    class       volVectorField;
    location    "9e-06";
    object      U;
}
// * * * * * * * * * * * * * * * * * * * * * * * * * * * * * * * * * * * * * //

dimensions      [0 1 -1 0 0 0 0];

internalField   nonuniform List<vector> 
8192
(
(-88.322 0 -8.74613332598e-12)
(-88.322 0 -2.54831844692e-13)
(-88.322 0 -4.94613551583e-12)
(-88.322 0 -8.61881131044e-12)
(-88.322 0 1.60381607137e-12)
(-88.322 0 -1.09553200289e-12)
(-88.322 0 -3.47639813971e-13)
(-88.322 0 6.54501395204e-13)
(-88.322 0 -4.56667286672e-12)
(-88.322 0 -1.25632982985e-11)
(-88.322 0 -1.5431053653e-11)
(-88.322 0 4.14019941431e-12)
(-88.322 0 -4.90265590972e-12)
(-88.322 0 -8.86392558803e-12)
(-88.322 0 -2.52394178202e-11)
(-88.322 0 5.91506438899e-12)
(-88.322 0 -1.93995992273e-12)
(-88.322 0 9.21567904724e-12)
(-88.322 0 -1.32710170974e-11)
(-88.322 0 -1.73448949678e-11)
(-88.322 0 8.12387678199e-12)
(-88.322 0 9.83587274653e-12)
(-88.322 0 -2.91994665218e-14)
(-88.322 0 -3.09087210285e-12)
(-88.322 0 2.39036625038e-12)
(-88.322 0 1.58166309717e-12)
(-88.322 0 4.25224915257e-12)
(-88.322 0 4.91455441075e-12)
(-88.322 0 1.60682052475e-12)
(-88.322 0 -3.42835934853e-12)
(-88.322 0 7.63511911986e-12)
(-88.322 0 -7.09306369696e-13)
(-88.322 0 -4.30299712701e-12)
(-88.322 0 1.61235853306e-11)
(-88.322 0 -1.24708152393e-11)
(-88.322 0 -6.43347900754e-12)
(-88.322 0 3.42582151227e-12)
(-88.322 0 -2.17000227012e-11)
(-88.322 0 1.05465960928e-11)
(-88.322 0 -5.48045981119e-14)
(-88.322 0 5.03944764613e-12)
(-88.322 0 -5.69421354238e-13)
(-88.322 0 -3.47557302065e-12)
(-88.322 0 -9.87698097043e-13)
(-88.322 0 -7.00842129185e-12)
(-88.322 0 -1.63406281525e-12)
(-88.322 0 -2.21951758123e-13)
(-88.322 0 -9.62634199897e-14)
(-88.322 0 1.79962861468e-12)
(-88.322 0 -3.68401762961e-12)
(-88.322 0 -6.75053625257e-13)
(-88.322 0 -4.84472745168e-12)
(-88.322 0 -5.91392819186e-13)
(-88.322 0 7.79151075082e-12)
(-88.322 0 2.58488150591e-12)
(-88.322 0 -1.18044146844e-11)
(-88.322 0 4.49798812687e-12)
(-88.322 0 -7.07067924906e-12)
(-88.322 0 -1.89255495547e-12)
(-88.322 0 -3.0707545917e-13)
(-88.322 0 9.574107794e-12)
(-88.322 0 1.87734368939e-11)
(-88.322 0 1.9010798308e-11)
(-88.3220000001 0 1.07297297112e-11)
(-88.322 0 1.6665298339e-12)
(-88.322 0 -6.5596918312e-14)
(-88.322 0 2.99373209383e-12)
(-88.322 0 -2.29946069382e-13)
(-88.322 0 -9.49203079498e-14)
(-88.322 0 -2.75060952512e-13)
(-88.322 0 -8.18777999029e-14)
(-88.322 0 1.36907285066e-14)
(-88.322 0 -1.41263789504e-13)
(-88.322 0 -3.78577497441e-12)
(-88.322 0 -2.42131654258e-13)
(-88.322 0 -7.37640463316e-12)
(-88.322 0 -3.89628578893e-14)
(-88.322 0 -3.73254166871e-14)
(-88.322 0 8.35769674255e-14)
(-88.322 0 2.19623480835e-12)
(-88.322 0 3.89708559643e-14)
(-88.322 0 5.93501958627e-13)
(-88.322 0 -5.01905772995e-12)
(-88.322 0 -1.86468062884e-13)
(-88.322 0 1.74665350567e-13)
(-88.322 0 9.05969249527e-14)
(-88.322 0 1.22392943019e-13)
(-88.322 0 4.19153896402e-13)
(-88.322 0 8.54398564856e-12)
(-88.322 0 -1.53463105663e-11)
(-88.322 0 1.07883353709e-11)
(-88.322 0 7.94215712922e-12)
(-88.322 0 2.33972949623e-12)
(-88.322 0 -1.78226564058e-13)
(-88.322 0 -2.58542104665e-13)
(-88.322 0 -3.15986820306e-13)
(-88.322 0 1.22329711178e-12)
(-88.322 0 -1.43693014731e-11)
(-88.322 0 2.99864460563e-12)
(-88.322 0 -9.16694574086e-13)
(-88.322 0 -7.06992263116e-12)
(-88.322 0 1.79546651052e-12)
(-88.322 0 -6.98182317571e-12)
(-88.322 0 4.55113053679e-14)
(-88.322 0 2.7011561097e-12)
(-88.322 0 -7.29387936555e-13)
(-88.322 0 -1.58703639218e-13)
(-88.322 0 1.21074681468e-12)
(-88.322 0 -1.06383608308e-11)
(-88.322 0 -1.27209192807e-11)
(-88.322 0 -1.58215085742e-11)
(-88.322 0 -2.97794361138e-12)
(-88.322 0 -1.45777471171e-11)
(-88.322 0 -4.12527077197e-12)
(-88.322 0 3.78112677547e-12)
(-88.322 0 -6.62395495288e-13)
(-88.322 0 -2.77709350402e-13)
(-88.322 0 -3.72513356931e-13)
(-88.322 0 -5.69746518332e-12)
(-88.322 0 2.53950084204e-11)
(-88.322 0 -5.45561148569e-12)
(-88.322 0 -1.00619881143e-11)
(-88.322 0 -2.22313782051e-11)
(-88.322 0 -2.4544836189e-12)
(-88.322 0 -9.37178397073e-13)
(-88.322 0 -3.56627306431e-11)
(-88.322 0 -2.85880707992e-11)
(-88.322 0 -1.32866563543e-11)
(-88.322 0 2.08181505526e-12)
(-88.322 0 1.51569582093e-12)
(-88.322 0 -1.75095769329e-12)
(-88.322 0 8.86917006699e-12)
(-88.322 0 1.51461561033e-12)
(-88.322 0 3.65476396437e-12)
(-88.322 0 6.43353772282e-13)
(-88.322 0 7.65642552135e-13)
(-88.322 0 2.48769962462e-13)
(-88.322 0 1.19328509729e-11)
(-88.322 0 1.49148579828e-11)
(-88.322 0 -2.51868830758e-12)
(-88.322 0 2.19873453614e-12)
(-88.322 0 1.70180048893e-12)
(-88.322 0 2.34994368733e-11)
(-88.322 0 -5.62958777857e-12)
(-88.322 0 1.34018935516e-12)
(-88.322 0 -5.01533297935e-12)
(-88.322 0 1.30942886198e-11)
(-88.322 0 1.43895654902e-11)
(-88.322 0 -8.04951971321e-12)
(-88.322 0 -4.64273314911e-12)
(-88.322 0 4.38795597361e-12)
(-88.322 0 3.18102367616e-12)
(-88.322 0 2.28315487706e-12)
(-88.322 0 -1.51355732385e-12)
(-88.3219999999 0 2.95342377153e-13)
(-88.322 0 1.18945273965e-12)
(-88.322 0 2.03287732449e-12)
(-88.322 0 -1.33545468291e-11)
(-88.322 0 5.63296258986e-12)
(-88.322 0 1.07788156856e-12)
(-88.322 0 1.45365701098e-12)
(-88.322 0 8.73074888746e-12)
(-88.322 0 2.65356741254e-11)
(-88.322 0 2.78844540719e-12)
(-88.322 0 -6.89534262476e-12)
(-88.322 0 9.02391898742e-12)
(-88.322 0 2.35010306545e-11)
(-88.322 0 -1.7216729861e-11)
(-88.322 0 -1.25179182557e-11)
(-88.322 0 -2.98190821014e-14)
(-88.322 0 -9.42404894478e-12)
(-88.322 0 -8.98471101206e-13)
(-88.322 0 -7.4946695344e-12)
(-88.322 0 -7.00579246572e-13)
(-88.322 0 -6.86018233403e-12)
(-88.322 0 -2.24174199236e-11)
(-88.322 0 2.2896097941e-12)
(-88.322 0 6.73023149237e-13)
(-88.322 0 -8.63949056875e-13)
(-88.322 0 7.2139525314e-12)
(-88.322 0 -2.23773538959e-11)
(-88.322 0 5.34104367112e-12)
(-88.322 0 -6.3605270594e-12)
(-88.322 0 -1.41560333662e-11)
(-88.3220000001 0 -8.10551941193e-12)
(-88.322 0 -7.4554244856e-12)
(-88.322 0 -1.63804500978e-12)
(-88.3219999999 0 -4.27327082258e-13)
(-88.322 0 1.99874248109e-13)
(-88.322 0 4.78054750998e-12)
(-88.322 0 3.00424071761e-13)
(-88.322 0 2.7755778658e-12)
(-88.322 0 6.86834392145e-12)
(-88.322 0 -6.97355363658e-13)
(-88.322 0 1.23039902606e-12)
(-88.322 0 5.45013289837e-12)
(-88.322 0 -4.86146412945e-12)
(-88.322 0 -8.44972165324e-14)
(-88.322 0 1.02250120314e-13)
(-88.322 0 3.23438617429e-12)
(-88.322 0 2.93060385196e-13)
(-88.322 0 6.89791377065e-12)
(-88.322 0 9.49044058946e-14)
(-88.322 0 4.07529729348e-12)
(-88.322 0 4.29155451626e-12)
(-88.322 0 6.94899625282e-12)
(-88.322 0 2.53838954245e-13)
(-88.322 0 -4.88799769642e-12)
(-88.322 0 3.6573023652e-13)
(-88.322 0 -3.82733541889e-12)
(-88.322 0 5.0765925886e-12)
(-88.322 0 6.0878524502e-15)
(-88.322 0 -2.18878671857e-12)
(-88.322 0 -1.82745080327e-11)
(-88.322 0 2.4723076585e-12)
(-88.322 0 -1.29383919286e-13)
(-88.322 0 -4.88639083609e-12)
(-88.322 0 1.85218966805e-11)
(-88.322 0 -7.24221772866e-12)
(-88.322 0 -9.99138854122e-12)
(-88.322 0 -2.06438983432e-12)
(-88.322 0 6.16493037002e-13)
(-88.322 0 3.89356729026e-12)
(-88.322 0 -1.74649570835e-12)
(-88.322 0 -1.23535162232e-13)
(-88.322 0 -1.71788791119e-12)
(-88.322 0 5.84852962581e-12)
(-88.3220000001 0 7.43537255867e-12)
(-88.322 0 2.82650090699e-14)
(-88.3219999999 0 1.92880597662e-11)
(-88.3220000001 0 -3.56627871942e-12)
(-88.3220000001 0 1.45945203979e-13)
(-88.322 0 -2.31919871983e-12)
(-88.322 0 -1.61783650876e-12)
(-88.322 0 2.24924971955e-13)
(-88.322 0 -1.00588590792e-13)
(-88.322 0 1.72813321952e-11)
(-88.322 0 1.37941173647e-11)
(-88.322 0 1.57584726396e-11)
(-88.322 0 2.80430286128e-12)
(-88.322 0 1.51238107048e-11)
(-88.322 0 4.93275238388e-12)
(-88.322 0 -3.12685553664e-12)
(-88.322 0 7.89564041877e-13)
(-88.322 0 2.04916611006e-13)
(-88.322 0 7.32714909952e-12)
(-88.322 0 1.84094898518e-11)
(-88.322 0 -2.46833220118e-11)
(-88.322 0 2.96774710072e-12)
(-88.322 0 1.78263725938e-11)
(-88.322 0 1.68350303856e-11)
(-88.322 0 8.37679191152e-12)
(-88.322 0 -1.91220450395e-11)
(-88.322 0 3.28003147094e-11)
(-88.322 0 9.41948881876e-12)
(-88.322 0 7.27827185254e-12)
(-88.322 0 -6.68584959969e-12)
(-88.322 0 -2.27396847623e-12)
(-88.322 0 2.88054992224e-12)
(-88.322 0 -2.60236755627e-13)
(-88.322 0 -3.18443254985e-12)
(-88.322 0 9.562874921e-15)
(-88.322 0 -9.22327289018e-13)
(-88.322 0 5.5137476114e-12)
(-88.322 0 3.31106005018e-12)
(-88.322 0 5.78168519598e-13)
(-88.322 0 1.8059729701e-12)
(-88.322 0 -1.0819237016e-11)
(-88.322 0 -1.37337053632e-11)
(-88.322 0 -1.55314271427e-12)
(-88.322 0 2.14779931265e-13)
(-88.322 0 1.66575532882e-13)
(-88.322 0 2.56970624058e-12)
(-88.322 0 9.62643985777e-13)
(-88.322 0 -3.05001228975e-13)
(-88.322 0 2.29423004683e-12)
(-88.322 0 6.75537179466e-14)
(-88.322 0 -6.23564840875e-13)
(-88.322 0 1.38388387425e-12)
(-88.322 0 -6.09823733905e-12)
(-88.322 0 -3.18225246278e-13)
(-88.322 0 2.5592880421e-13)
(-88.322 0 5.18005493481e-13)
(-88.322 0 2.50057257348e-12)
(-88.322 0 5.26731318095e-12)
(-88.322 0 7.87264896402e-12)
(-88.322 0 5.26347297578e-13)
(-88.322 0 6.0705610824e-12)
(-88.322 0 -7.15768880211e-12)
(-88.322 0 -9.9289461578e-12)
(-88.322 0 -3.62498588887e-11)
(-88.322 0 -1.09791402724e-11)
(-88.322 0 8.02821557001e-12)
(-88.322 0 -2.13572614307e-11)
(-88.322 0 -2.21318546757e-11)
(-88.322 0 9.96887414812e-12)
(-88.322 0 4.02800815717e-12)
(-88.322 0 1.61850053718e-12)
(-88.322 0 5.47383919285e-12)
(-88.322 0 1.30141478136e-13)
(-88.322 0 2.0740984624e-13)
(-88.322 0 1.87134820059e-13)
(-88.322 0 3.7117985199e-12)
(-88.322 0 1.54198676394e-11)
(-88.322 0 -7.18752755007e-13)
(-88.322 0 -2.94135382941e-12)
(-88.322 0 3.6235326104e-14)
(-88.322 0 -1.15329899391e-12)
(-88.322 0 1.60337704292e-11)
(-88.322 0 -8.80852894418e-12)
(-88.322 0 -7.30408867313e-13)
(-88.322 0 -5.8926815407e-13)
(-88.322 0 -1.15441730358e-11)
(-88.322 0 6.47833804636e-12)
(-88.322 0 -2.18744896995e-11)
(-88.322 0 1.30694583606e-11)
(-88.322 0 1.58319232912e-12)
(-88.322 0 9.73795908842e-12)
(-88.322 0 5.61366276427e-12)
(-88.322 0 2.70886417436e-12)
(-88.322 0 -1.15864162349e-12)
(-88.322 0 -1.16301420864e-14)
(-88.322 0 6.22562352737e-13)
(-88.322 0 1.03472683485e-11)
(-88.322 0 -4.59595353723e-12)
(-88.322 0 1.18215905976e-11)
(-88.322 0 1.88622106341e-11)
(-88.322 0 -5.46170677165e-12)
(-88.322 0 3.48799534855e-13)
(-88.322 0 3.06647515107e-12)
(-88.322 0 -1.43762933903e-12)
(-88.322 0 6.72361830753e-12)
(-88.322 0 3.54582415998e-12)
(-88.322 0 -1.87298432447e-12)
(-88.322 0 1.84922855484e-11)
(-88.322 0 1.92921272108e-11)
(-88.322 0 8.77220949714e-12)
(-88.322 0 2.71878518446e-12)
(-88.322 0 -1.48425915168e-12)
(-88.322 0 1.33087714932e-12)
(-88.322 0 1.63124819854e-11)
(-88.322 0 2.31768410084e-11)
(-88.322 0 -4.18323197507e-12)
(-88.322 0 -9.5120301228e-12)
(-88.322 0 -1.25379384726e-11)
(-88.322 0 1.43947442908e-11)
(-88.322 0 6.75360986577e-12)
(-88.322 0 -1.49924679158e-12)
(-88.322 0 1.69482475605e-11)
(-88.322 0 1.01343453821e-11)
(-88.322 0 -9.04465611416e-14)
(-88.322 0 -4.09932802752e-12)
(-88.322 0 3.24778116221e-13)
(-88.322 0 1.22365090899e-13)
(-88.322 0 2.54528388315e-13)
(-88.322 0 -5.64077793243e-13)
(-88.322 0 2.33322499111e-12)
(-88.322 0 8.21393557764e-13)
(-88.322 0 -1.3203880973e-14)
(-88.322 0 5.46077504295e-12)
(-88.322 0 1.65665624816e-12)
(-88.322 0 -2.74520150905e-12)
(-88.322 0 1.65940391627e-13)
(-88.322 0 1.84776893437e-13)
(-88.322 0 -1.95621059982e-13)
(-88.322 0 -3.41434060485e-14)
(-88.322 0 -7.25655093783e-13)
(-88.322 0 5.30526451758e-12)
(-88.322 0 -2.67976144711e-12)
(-88.322 0 -1.04807810623e-13)
(-88.322 0 3.00046562618e-13)
(-88.322 0 3.73972845668e-12)
(-88.322 0 9.73314603504e-12)
(-88.322 0 -8.6451679788e-12)
(-88.322 0 -1.01046972706e-11)
(-88.322 0 1.13237228457e-11)
(-88.322 0 2.71100202238e-12)
(-88.322 0 1.64629921143e-12)
(-88.322 0 7.40836381195e-12)
(-88.322 0 -5.20404501981e-12)
(-88.322 0 9.46040960542e-12)
(-88.322 0 -1.35767860475e-11)
(-88.322 0 8.17444258851e-12)
(-88.322 0 -5.15584014141e-12)
(-88.322 0 5.14125606035e-12)
(-88.322 0 1.05605134021e-12)
(-88.322 0 -3.80337939628e-12)
(-88.322 0 2.93930011192e-13)
(-88.322 0 3.24751675526e-13)
(-88.3219999999 0 -8.84969127271e-14)
(-88.322 0 -3.2367519108e-12)
(-88.322 0 -3.97832703185e-12)
(-88.322 0 -1.77489800203e-13)
(-88.322 0 -1.52791019888e-12)
(-88.322 0 5.7821910507e-12)
(-88.322 0 -7.54407928974e-12)
(-88.322 0 -1.80744437127e-11)
(-88.322 0 -1.96553259154e-12)
(-88.322 0 -7.97168329359e-13)
(-88.322 0 5.59865254157e-16)
(-88.322 0 -2.16430696319e-12)
(-88.322 0 -2.14453553345e-12)
(-88.322 0 6.23260255358e-13)
(-88.322 0 -2.80470568197e-13)
(-88.322 0 1.2796826e-14)
(-88.322 0 -2.01453425687e-12)
(-88.322 0 -6.61728173543e-13)
(-88.322 0 6.3947616435e-12)
(-88.3219999999 0 -2.75795138165e-12)
(-88.322 0 -9.9392455143e-14)
(-88.322 0 -3.01696179713e-12)
(-88.322 0 -1.74758118828e-12)
(-88.322 0 -7.53635154962e-12)
(-88.322 0 3.16586892354e-12)
(-88.322 0 -1.2224245312e-11)
(-88.322 0 -6.83843161596e-12)
(-88.322 0 1.4892056694e-11)
(-88.322 0 6.39946959277e-12)
(-88.322 0 -6.18594281872e-12)
(-88.322 0 1.09309682427e-12)
(-88.322 0 -7.68629014543e-12)
(-88.322 0 2.99296961381e-11)
(-88.322 0 3.51943041819e-12)
(-88.322 0 -7.08825356053e-13)
(-88.322 0 3.92243319001e-12)
(-88.322 0 4.38832548468e-13)
(-88.322 0 1.41724949102e-14)
(-88.322 0 1.80942625663e-12)
(-88.322 0 6.84733093293e-12)
(-88.322 0 -1.28277832552e-13)
(-88.322 0 -8.03646581967e-15)
(-88.322 0 -1.17975370926e-14)
(-88.322 0 3.85305195896e-13)
(-88.322 0 6.32698548498e-14)
(-88.322 0 1.80251996586e-12)
(-88.322 0 2.02269059972e-13)
(-88.322 0 -1.19110627109e-13)
(-88.322 0 -2.82950197294e-12)
(-88.322 0 1.5744990802e-12)
(-88.322 0 6.73517816065e-12)
(-88.322 0 7.74746958574e-12)
(-88.322 0 -1.34872094887e-12)
(-88.322 0 2.30745103427e-11)
(-88.322 0 -7.05831808291e-12)
(-88.322 0 -1.08194289698e-13)
(-88.322 0 1.15950728796e-12)
(-88.322 0 2.7138587466e-12)
(-88.322 0 -4.54167471782e-12)
(-88.322 0 9.0476727265e-12)
(-88.322 0 7.2125069499e-13)
(-88.322 0 -6.90549848637e-13)
(-88.322 0 -7.36921144673e-12)
(-88.322 0 9.35710439786e-12)
(-88.322 0 -1.13348492973e-11)
(-88.322 0 -1.88557810286e-11)
(-88.322 0 5.5027369908e-12)
(-88.322 0 -3.60791754504e-13)
(-88.322 0 -6.00077524284e-12)
(-88.322 0 1.43194298995e-12)
(-88.3220000001 0 -2.8144096053e-12)
(-88.322 0 5.96433083765e-12)
(-88.322 0 -4.65889801157e-12)
(-88.322 0 -1.80573729977e-11)
(-88.322 0 -1.47108562575e-11)
(-88.322 0 -6.35667189313e-12)
(-88.322 0 9.4948254165e-14)
(-88.322 0 1.18877534974e-12)
(-88.322 0 -9.41757153902e-13)
(-88.322 0 -1.14877903704e-11)
(-88.322 0 -4.81432836799e-12)
(-88.322 0 2.52456538723e-12)
(-88.322 0 8.73910254753e-12)
(-88.322 0 9.02505781922e-12)
(-88.322 0 -1.46583177493e-11)
(-88.322 0 -1.02212741075e-11)
(-88.322 0 2.14514282259e-12)
(-88.322 0 -1.70218129139e-11)
(-88.322 0 -1.0098247811e-11)
(-88.322 0 -3.55439564998e-12)
(-88.322 0 6.47438050473e-12)
(-88.322 0 -6.29684685625e-14)
(-88.322 0 -6.26838876424e-13)
(-88.322 0 -7.94972716612e-13)
(-88.322 0 1.64587587802e-13)
(-88.322 0 6.3921925677e-12)
(-88.322 0 -6.30951204335e-13)
(-88.3220000001 0 2.68314510333e-12)
(-88.322 0 -5.28523649078e-12)
(-88.322 0 -2.003082613e-12)
(-88.322 0 5.13029683978e-12)
(-88.322 0 5.25553512152e-14)
(-88.322 0 -8.42094834297e-13)
(-88.322 0 -6.68013973646e-12)
(-88.322 0 -1.2411076958e-12)
(-88.322 0 7.57450453184e-13)
(-88.322 0 -5.08645769667e-12)
(-88.322 0 2.27834728119e-12)
(-88.322 0 1.0236745678e-13)
(-88.322 0 -9.1187239349e-13)
(-88.322 0 -3.7851464198e-12)
(-88.322 0 -9.92683748884e-12)
(-88.322 0 8.51327962698e-12)
(-88.322 0 9.85571380657e-12)
(-88.322 0 -1.64227099504e-11)
(-88.322 0 -7.54150136901e-12)
(-88.322 0 -1.87866540423e-12)
(-88.322 0 -1.2432236289e-11)
(-88.322 0 4.64905294574e-12)
(-88.322 0 -9.67252589541e-12)
(-88.322 0 1.40090709953e-11)
(-88.322 0 -8.21919633503e-12)
(-88.322 0 5.28237955765e-12)
(-88.322 0 1.95823011438e-13)
(-88.322 0 1.65884875577e-13)
(-88.322 0 3.69599498225e-12)
(-88.322 0 3.12902574373e-14)
(-88.322 0 5.07113714865e-14)
(-88.322 0 2.67104768547e-12)
(-88.322 0 2.89700666739e-12)
(-88.322 0 -1.57489267958e-12)
(-88.322 0 -1.185762616e-13)
(-88.322 0 -2.84687971995e-12)
(-88.322 0 -7.8187761887e-12)
(-88.322 0 1.5837890702e-11)
(-88.322 0 3.23899929462e-11)
(-88.322 0 2.4844683082e-12)
(-88.322 0 6.47807476855e-13)
(-88.322 0 -2.20631699358e-13)
(-88.322 0 -6.23439318144e-13)
(-88.322 0 2.6906066487e-12)
(-88.322 0 -4.93210237562e-14)
(-88.322 0 1.70247872569e-13)
(-88.322 0 -1.03528494994e-13)
(-88.322 0 2.14090977079e-12)
(-88.322 0 7.94865730597e-13)
(-88.322 0 2.43865825121e-13)
(-88.322 0 2.61696733658e-12)
(-88.322 0 -9.2533964637e-14)
(-88.322 0 2.77993385571e-12)
(-88.322 0 2.25268851545e-12)
(-88.322 0 -1.32957638003e-12)
(-88.322 0 4.75882680821e-12)
(-88.322 0 2.77555128696e-12)
(-88.322 0 1.53302868463e-13)
(-88.322 0 -6.54978005202e-12)
(-88.322 0 1.24818475017e-11)
(-88.322 0 8.77119402389e-12)
(-88.322 0 4.62736461265e-12)
(-88.322 0 4.16519217564e-12)
(-88.322 0 -4.29854274495e-11)
(-88.322 0 2.6787037252e-12)
(-88.322 0 7.48760252937e-12)
(-88.322 0 -1.33940130952e-12)
(-88.322 0 -1.69945517103e-12)
(-88.322 0 6.6912099192e-12)
(-88.322 0 -2.12493215739e-12)
(-88.322 0 -6.7929728156e-12)
(-88.322 0 -2.30845147114e-14)
(-88.322 0 1.2434227151e-12)
(-88.322 0 6.62610173032e-12)
(-88.322 0 2.10955816341e-13)
(-88.322 0 4.84990578185e-12)
(-88.322 0 -1.36213240341e-12)
(-88.322 0 -1.88823571265e-12)
(-88.322 0 6.68962545348e-12)
(-88.322 0 2.8414469569e-12)
(-88.3220000001 0 4.53628554491e-12)
(-88.322 0 -5.46077419609e-12)
(-88.322 0 3.70319099153e-12)
(-88.322 0 -4.63176938782e-12)
(-88.322 0 -1.40461770765e-12)
(-88.322 0 -5.78369290101e-12)
(-88.322 0 6.08099424198e-12)
(-88.322 0 -3.09189005079e-11)
(-88.322 0 -1.57610841522e-11)
(-88.322 0 -1.71255444195e-12)
(-88.322 0 -5.00228514092e-12)
(-88.322 0 2.13643461256e-12)
(-88.322 0 -4.07383138747e-12)
(-88.322 0 -5.17117039075e-12)
(-88.322 0 3.06918282881e-12)
(-88.322 0 1.44515392805e-12)
(-88.322 0 -4.74332296314e-12)
(-88.322 0 -1.04581716333e-11)
(-88.322 0 -3.60581254578e-12)
(-88.322 0 -4.15770710652e-12)
(-88.322 0 2.25021551064e-12)
(-88.322 0 -3.79041969183e-12)
(-88.322 0 -3.34714811761e-12)
(-88.322 0 8.74503316723e-13)
(-88.322 0 -5.71496807668e-13)
(-88.322 0 -1.75681774174e-12)
(-88.322 0 -2.57848944432e-12)
(-88.322 0 -1.06692702858e-12)
(-88.322 0 9.41596063261e-13)
(-88.322 0 -6.91917641796e-12)
(-88.322 0 -2.92267032607e-12)
(-88.322 0 1.01680666779e-12)
(-88.322 0 3.45486167595e-12)
(-88.322 0 -1.18708551644e-11)
(-88.322 0 -1.98552205822e-11)
(-88.322 0 -9.25501809695e-12)
(-88.322 0 -4.55563204162e-13)
(-88.322 0 -7.02156015317e-12)
(-88.322 0 1.46665689399e-13)
(-88.322 0 -1.03905857348e-11)
(-88.322 0 -1.53950769941e-11)
(-88.322 0 -8.64722687151e-12)
(-88.322 0 1.10820641129e-12)
(-88.322 0 -1.861668375e-11)
(-88.322 0 -1.46446041557e-11)
(-88.322 0 -2.85553640356e-11)
(-88.322 0 7.01557947493e-12)
(-88.322 0 3.28843964024e-11)
(-88.322 0 -1.59655257716e-11)
(-88.322 0 -1.84219418196e-11)
(-88.322 0 1.59612540468e-12)
(-88.322 0 2.27093268923e-12)
(-88.322 0 -1.474052714e-11)
(-88.322 0 -2.4712321056e-11)
(-88.322 0 2.35578079543e-11)
(-88.322 0 -1.32347125173e-11)
(-88.322 0 1.42048937009e-12)
(-88.322 0 -2.14101439502e-11)
(-88.322 0 1.90115447637e-11)
(-88.322 0 7.75251909986e-13)
(-88.322 0 2.34735730746e-12)
(-88.322 0 1.90652335833e-12)
(-88.322 0 -1.22265854547e-11)
(-88.322 0 -2.87091633493e-11)
(-88.322 0 -2.45579292261e-11)
(-88.322 0 1.16300530725e-11)
(-88.322 0 1.19134343754e-11)
(-88.322 0 3.10482085867e-11)
(-88.322 0 -3.64931878078e-12)
(-88.322 0 -1.25007460121e-11)
(-88.322 0 9.95251516767e-12)
(-88.322 0 -1.97652260534e-12)
(-88.322 0 -4.46543473814e-12)
(-88.322 0 -5.58995501032e-13)
(-88.322 0 -8.94796891876e-13)
(-88.322 0 -3.40490946293e-13)
(-88.322 0 -4.66821106426e-13)
(-88.322 0 -8.79713131084e-12)
(-88.322 0 1.28765705722e-12)
(-88.322 0 -8.18361534556e-12)
(-88.322 0 4.59060564786e-12)
(-88.322 0 7.28124334791e-13)
(-88.322 0 -4.77567668227e-12)
(-88.322 0 -1.29663278874e-11)
(-88.322 0 -1.72714436575e-11)
(-88.322 0 -1.87245933082e-11)
(-88.322 0 -2.14485208785e-11)
(-88.322 0 -8.00124634319e-12)
(-88.322 0 -1.11093450765e-13)
(-88.322 0 1.61149243562e-12)
(-88.322 0 -8.08674266044e-13)
(-88.322 0 -8.44439879314e-12)
(-88.322 0 -4.40227638587e-12)
(-88.322 0 6.48856890169e-12)
(-88.322 0 6.72728255505e-12)
(-88.322 0 1.89768341529e-11)
(-88.322 0 -7.90837956454e-12)
(-88.322 0 -7.00206724464e-13)
(-88.322 0 4.70634306329e-13)
(-88.322 0 6.2170931569e-12)
(-88.322 0 1.10657646005e-11)
(-88.322 0 2.54404954493e-12)
(-88.322 0 3.51727639543e-12)
(-88.322 0 8.4113600624e-13)
(-88.322 0 -2.25717524736e-12)
(-88.322 0 -6.69017713247e-13)
(-88.322 0 1.08353630172e-12)
(-88.322 0 -1.85893813328e-11)
(-88.322 0 1.10862344034e-11)
(-88.3219999999 0 7.61753436385e-12)
(-88.3219999999 0 1.02711471866e-11)
(-88.3220000001 0 2.86712948163e-11)
(-88.3220000001 0 -1.12775516521e-11)
(-88.322 0 5.47875603301e-12)
(-88.322 0 6.27615442465e-13)
(-88.322 0 -3.26233671787e-13)
(-88.3220000001 0 3.58601787458e-13)
(-88.3219999999 0 -4.0917942172e-12)
(-88.322 0 3.96311102338e-12)
(-88.322 0 -2.94093934093e-12)
(-88.322 0 1.00296980975e-12)
(-88.322 0 5.81563542499e-12)
(-88.322 0 4.03199637378e-12)
(-88.322 0 2.55628866986e-12)
(-88.322 0 -4.69617346381e-12)
(-88.322 0 -7.44371473915e-12)
(-88.322 0 5.44399630471e-12)
(-88.322 0 -2.02340957962e-12)
(-88.322 0 6.68255741341e-12)
(-88.322 0 1.32168623193e-11)
(-88.3219999999 0 8.28938565395e-12)
(-88.322 0 9.52024819198e-12)
(-88.3220000001 0 -3.08216492786e-12)
(-88.322 0 4.35187496331e-14)
(-88.322 0 -8.19783836949e-12)
(-88.322 0 1.58386814764e-11)
(-88.322 0 8.18868593696e-12)
(-88.322 0 8.67065307365e-13)
(-88.322 0 -3.09902135447e-12)
(-88.322 0 -1.98282753496e-12)
(-88.322 0 3.61115620087e-12)
(-88.322 0 -1.70450863714e-12)
(-88.322 0 -1.30151828586e-13)
(-88.322 0 -2.81032042476e-12)
(-88.322 0 1.43446012532e-12)
(-88.322 0 5.51952316254e-12)
(-88.322 0 3.29844670943e-12)
(-88.322 0 7.60243380995e-13)
(-88.322 0 -9.43706943459e-12)
(-88.322 0 5.5362412095e-13)
(-88.322 0 -5.40974233704e-12)
(-88.322 0 -1.33291176552e-12)
(-88.322 0 -3.23677430541e-12)
(-88.322 0 -3.77630337164e-13)
(-88.322 0 -2.46210107968e-13)
(-88.322 0 1.49872456432e-12)
(-88.322 0 -8.30905339099e-13)
(-88.322 0 6.83761270717e-12)
(-88.322 0 3.40898377646e-13)
(-88.322 0 -8.04774592835e-13)
(-88.322 0 -4.15655811247e-12)
(-88.322 0 1.00923313997e-11)
(-88.322 0 1.95356785704e-11)
(-88.322 0 6.77676796277e-12)
(-88.322 0 5.56692182543e-13)
(-88.322 0 7.12406950521e-12)
(-88.322 0 1.94874171505e-12)
(-88.322 0 1.05409332675e-11)
(-88.322 0 1.53903800539e-11)
(-88.322 0 8.18036398691e-12)
(-88.322 0 -1.00164335253e-12)
(-88.322 0 2.122747996e-11)
(-88.322 0 1.52457537796e-11)
(-88.322 0 2.92261302221e-11)
(-88.322 0 -6.76375961121e-12)
(-88.322 0 -3.04792569547e-11)
(-88.322 0 1.55769474812e-11)
(-88.322 0 1.7836175411e-11)
(-88.322 0 -1.52304680467e-12)
(-88.322 0 -3.0808128768e-12)
(-88.322 0 1.41350126372e-11)
(-88.322 0 2.4243093564e-11)
(-88.322 0 -2.37576534093e-11)
(-88.322 0 1.39906391961e-11)
(-88.322 0 -1.21942858402e-12)
(-88.322 0 2.09218793459e-11)
(-88.322 0 -1.90178158191e-11)
(-88.322 0 -7.86303650103e-13)
(-88.322 0 -2.45684606208e-12)
(-88.322 0 -2.85593250587e-12)
(-88.322 0 9.83272206953e-12)
(-88.322 0 2.70859522282e-11)
(-88.322 0 1.91089150231e-11)
(-88.322 0 -9.05250410769e-12)
(-88.322 0 -4.06178769785e-12)
(-88.322 0 -3.85512350745e-11)
(-88.322 0 1.49390402098e-11)
(-88.322 0 7.60858583519e-12)
(-88.322 0 3.65546845364e-14)
(-88.322 0 -1.13392654579e-11)
(-88.322 0 3.74934750631e-12)
(-88.322 0 -2.77300906233e-12)
(-88.322 0 6.79061973113e-13)
(-88.322 0 6.53519918481e-12)
(-88.322 0 -3.08210122555e-12)
(-88.322 0 8.40303067884e-12)
(-88.322 0 -1.14348347391e-12)
(-88.322 0 6.96017069282e-12)
(-88.322 0 -6.21825955852e-12)
(-88.322 0 -6.24078091466e-12)
(-88.322 0 1.34580842631e-12)
(-88.322 0 8.81029633057e-12)
(-88.322 0 1.75401394596e-11)
(-88.322 0 1.00236077986e-11)
(-88.322 0 5.87519031512e-12)
(-88.322 0 -2.62034148921e-12)
(-88.322 0 7.946021705e-14)
(-88.322 0 -1.60655828198e-12)
(-88.322 0 1.017198103e-12)
(-88.322 0 6.83601092797e-12)
(-88.322 0 4.57836812255e-12)
(-88.322 0 -8.66825042342e-12)
(-88.322 0 -6.81982997527e-12)
(-88.322 0 -1.83464693487e-11)
(-88.322 0 6.12752158517e-12)
(-88.322 0 4.56840637892e-14)
(-88.322 0 -6.30405547426e-13)
(-88.322 0 -6.23114361059e-12)
(-88.322 0 -1.17423125485e-11)
(-88.322 0 -5.66895044612e-12)
(-88.322 0 -3.60603526864e-12)
(-88.322 0 -3.61541973944e-13)
(-88.322 0 2.08572380564e-12)
(-88.322 0 4.57366723041e-13)
(-88.322 0 -4.2352395052e-12)
(-88.322 0 1.12358027353e-11)
(-88.322 0 -1.49847294488e-11)
(-88.322 0 -1.6928691326e-11)
(-88.322 0 -1.61827337303e-11)
(-88.322 0 1.07760777093e-11)
(-88.322 0 -5.60384206905e-12)
(-88.322 0 -2.37044022255e-11)
(-88.322 0 1.02752774867e-11)
(-88.322 0 5.47747747014e-12)
(-88.322 0 -2.82149335924e-12)
(-88.322 0 3.66471507526e-12)
(-88.322 0 -1.3114448756e-11)
(-88.322 0 -1.238042203e-11)
(-88.322 0 -6.85347477191e-12)
(-88.322 0 -1.19375107455e-11)
(-88.322 0 -4.32807532659e-12)
(-88.322 0 -2.30631758471e-12)
(-88.322 0 5.04984241495e-12)
(-88.322 0 7.9456019472e-12)
(-88.322 0 -7.49112939819e-12)
(-88.322 0 1.59671020511e-12)
(-88.322 0 -1.05974712837e-11)
(-88.322 0 1.26205870047e-11)
(-88.322 0 -8.0967848553e-12)
(-88.322 0 -2.10729129252e-11)
(-88.322 0 -1.24170731619e-11)
(-88.322 0 -7.16664946903e-12)
(-88.322 0 1.26098272413e-12)
(-88.322 0 4.32680711418e-13)
(-88.322 0 -1.01752451855e-12)
(-88.322 0 2.56109565785e-13)
(-88.322 0 3.96608817524e-14)
(-88.322 0 -4.78745370666e-12)
(-88.322 0 -8.8354735181e-13)
(-88.322 0 -9.73077615835e-13)
(-88.322 0 -2.80535399653e-12)
(-88.322 0 -1.25412206944e-12)
(-88.322 0 3.04534066115e-12)
(-88.322 0 7.7983678299e-14)
(-88.322 0 6.64687084935e-15)
(-88.322 0 2.26591686112e-12)
(-88.322 0 1.37738212612e-11)
(-88.322 0 -1.27737617157e-11)
(-88.322 0 -2.42052673737e-11)
(-88.322 0 -1.28879428939e-12)
(-88.322 0 2.57355952495e-12)
(-88.322 0 3.60920476465e-13)
(-88.322 0 4.89651094161e-13)
(-88.322 0 -2.56989828848e-12)
(-88.322 0 1.29680883108e-13)
(-88.322 0 -3.91137109944e-13)
(-88.322 0 -2.87626022526e-13)
(-88.322 0 -2.49053216643e-12)
(-88.322 0 -6.18570560523e-13)
(-88.322 0 2.20873871661e-12)
(-88.322 0 3.32771674721e-14)
(-88.322 0 -3.01995364177e-13)
(-88.322 0 -2.90885868549e-12)
(-88.322 0 -1.02610353615e-12)
(-88.322 0 -7.28162452676e-12)
(-88.322 0 -1.95077002688e-13)
(-88.322 0 2.36855935759e-15)
(-88.322 0 3.46033800499e-13)
(-88.322 0 -4.67134630968e-15)
(-88.322 0 -5.81125078615e-14)
(-88.322 0 -9.16856982057e-14)
(-88.322 0 -1.9194975534e-13)
(-88.322 0 -5.84707162377e-12)
(-88.322 0 -1.7447894837e-13)
(-88.3220000001 0 4.44988431604e-14)
(-88.322 0 -8.98085029418e-14)
(-88.322 0 2.35914985752e-14)
(-88.322 0 8.09993195669e-13)
(-88.322 0 1.46075901935e-14)
(-88.322 0 3.3530941689e-14)
(-88.322 0 6.89352207468e-14)
(-88.322 0 -9.18430156374e-13)
(-88.322 0 -2.62568053364e-13)
(-88.322 0 -9.78048842912e-14)
(-88.322 0 3.83257406396e-14)
(-88.322 0 -2.58013196666e-14)
(-88.322 0 1.08769210153e-13)
(-88.322 0 9.34565755284e-13)
(-88.322 0 1.81331896681e-12)
(-88.322 0 -5.30742851441e-14)
(-88.322 0 -1.16968507371e-12)
(-88.322 0 -8.34072953203e-13)
(-88.3220000001 0 -1.35864938287e-12)
(-88.322 0 3.57938323608e-14)
(-88.322 0 -8.5395071029e-14)
(-88.322 0 1.46717366373e-12)
(-88.322 0 1.16999204924e-11)
(-88.322 0 1.57781237218e-11)
(-88.322 0 8.09430667526e-12)
(-88.322 0 -8.26202592207e-13)
(-88.322 0 9.17504092708e-12)
(-88.322 0 -5.22782452019e-12)
(-88.322 0 2.00280324494e-12)
(-88.322 0 8.13287395777e-12)
(-88.322 0 -3.7575521199e-14)
(-88.322 0 1.02316137367e-12)
(-88.322 0 1.80419909115e-12)
(-88.322 0 5.63698863266e-12)
(-88.322 0 3.57142298721e-12)
(-88.322 0 1.18837592587e-11)
(-88.322 0 8.3154902418e-12)
(-88.3220000001 0 4.61878032573e-12)
(-88.322 0 1.15413654292e-11)
(-88.3219999999 0 2.05738502609e-11)
(-88.322 0 4.62703509195e-13)
(-88.322 0 -5.80708896427e-13)
(-88.322 0 -4.78617081542e-12)
(-88.322 0 -2.06795819903e-12)
(-88.322 0 -7.15968860316e-13)
(-88.322 0 2.00912003053e-12)
(-88.322 0 1.43988968914e-13)
(-88.322 0 -7.84518141008e-12)
(-88.322 0 4.38352663965e-13)
(-88.322 0 -5.9978775873e-12)
(-88.322 0 -1.8527843861e-12)
(-88.322 0 5.08667976087e-13)
(-88.322 0 4.00380607614e-12)
(-88.322 0 9.36202349631e-13)
(-88.322 0 3.57667047721e-13)
(-88.322 0 5.9245597978e-12)
(-88.322 0 -1.63857824615e-12)
(-88.322 0 4.74283969121e-13)
(-88.322 0 3.36713107291e-12)
(-88.322 0 -1.32323339839e-11)
(-88.322 0 9.27409040083e-12)
(-88.322 0 1.181320965e-11)
(-88.322 0 8.29092871786e-12)
(-88.322 0 -1.87058551357e-11)
(-88.322 0 8.59995787153e-12)
(-88.322 0 1.80041188029e-11)
(-88.322 0 -1.02800162991e-11)
(-88.322 0 -4.61136102902e-12)
(-88.322 0 2.30489213955e-12)
(-88.322 0 -6.31190770206e-13)
(-88.322 0 1.58015845224e-11)
(-88.322 0 1.5840658036e-11)
(-88.322 0 4.84979691394e-12)
(-88.322 0 5.8580591911e-12)
(-88.322 0 3.82778387566e-12)
(-88.322 0 4.40579798536e-13)
(-88.322 0 5.19475539677e-13)
(-88.322 0 1.36143610041e-13)
(-88.322 0 1.98146353383e-12)
(-88.322 0 -1.67468325067e-12)
(-88.322 0 5.33350421509e-12)
(-88.322 0 -1.35707086395e-11)
(-88.322 0 -9.01762262045e-14)
(-88.322 0 1.85843951446e-11)
(-88.322 0 1.19753047553e-11)
(-88.322 0 9.43215786375e-12)
(-88.322 0 1.08812547487e-11)
(-88.322 0 -1.68914355396e-11)
(-88.322 0 -7.31936349097e-12)