/*--------------------------------*- C++ -*----------------------------------*\
  =========                 |
  \\      /  F ield         | OpenFOAM: The Open Source CFD Toolbox
   \\    /   O peration     | Website:  https://openfoam.org
    \\  /    A nd           | Version:  6
     \\/     M anipulation  |
\*---------------------------------------------------------------------------*/
FoamFile
{
    version     2.0;
    format      ascii;
    class       volVectorField;
    location    "4.99e-05";
    object      U;
}
// * * * * * * * * * * * * * * * * * * * * * * * * * * * * * * * * * * * * * //

dimensions      [0 1 -1 0 0 0 0];

internalField   nonuniform List<vector> 
8192
(
(-88.3219999999 0 -2.93568133016e-10)
(-88.3219999996 0 -9.95799612619e-11)
(-88.3220000002 0 -7.37060218966e-11)
(-88.3220000004 0 -3.22207536026e-10)
(-88.3219999994 0 -6.75977595821e-11)
(-88.3219999996 0 -8.92480025462e-12)
(-88.3220000003 0 -3.66413949615e-12)
(-88.3219999999 0 1.48272346763e-10)
(-88.322 0 -2.94195600071e-10)
(-88.322 0 -6.03436852999e-10)
(-88.3219999999 0 -7.70243665928e-10)
(-88.322 0 3.88732905424e-10)
(-88.3220000002 0 6.86274061619e-10)
(-88.3220000001 0 -8.12650204468e-10)
(-88.3219999998 0 -6.44745653572e-10)
(-88.3219999998 0 3.9259284382e-10)
(-88.3219999998 0 3.61846808342e-10)
(-88.3219999998 0 7.4513555355e-10)
(-88.3220000003 0 -4.36203568493e-10)
(-88.3219999999 0 -6.24084833743e-10)
(-88.3219999996 0 2.6336415061e-10)
(-88.3220000004 0 4.04059040046e-10)
(-88.3220000004 0 -6.77335128478e-10)
(-88.3219999998 0 -6.05361805899e-10)
(-88.322 0 1.98018706833e-10)
(-88.3219999998 0 2.10430784962e-10)
(-88.3219999999 0 2.66705447524e-10)
(-88.3219999999 0 2.20936898375e-10)
(-88.3220000002 0 3.48599607632e-10)
(-88.3220000002 0 -1.84262017919e-10)
(-88.322 0 2.40390827209e-10)
(-88.3219999995 0 -8.35446672465e-11)
(-88.3219999988 0 1.42295023852e-10)
(-88.3220000021 0 5.86802160926e-10)
(-88.3220000029 0 -9.3720238648e-10)
(-88.3219999986 0 -6.69303821573e-10)
(-88.3219999994 0 -7.02310961542e-12)
(-88.3219999996 0 -5.96617212344e-10)
(-88.3219999985 0 1.67238463213e-10)
(-88.3220000007 0 2.00318518313e-10)
(-88.3220000001 0 -8.24256515778e-11)
(-88.3219999997 0 8.25971928803e-11)
(-88.3220000002 0 -1.70637641349e-11)
(-88.322 0 -1.59871141759e-11)
(-88.322 0 -6.43143446431e-11)
(-88.322 0 -4.39925068585e-11)
(-88.322 0 -2.34410246729e-11)
(-88.3219999999 0 -2.05029670855e-11)
(-88.3220000001 0 3.65075831196e-11)
(-88.3219999998 0 -1.12992190302e-10)
(-88.3219999999 0 1.58376382358e-10)
(-88.3220000007 0 -8.52755362217e-11)
(-88.3219999993 0 -2.33974196287e-10)
(-88.3219999992 0 3.90977028377e-10)
(-88.3220000013 0 2.16057035944e-10)
(-88.3220000007 0 -1.99325981287e-10)
(-88.322 0 -2.44034196833e-11)
(-88.3219999998 0 -1.91232237488e-10)
(-88.3220000002 0 -5.10134632981e-11)
(-88.3219999991 0 -3.38960091861e-10)
(-88.3219999982 0 3.68427877429e-10)
(-88.3219999998 0 4.16881307358e-10)
(-88.322000001 0 3.73335310072e-10)
(-88.3220000014 0 -6.42696342744e-11)
(-88.3220000001 0 -3.8116938738e-10)
(-88.3219999998 0 -9.92115771699e-11)
(-88.3220000002 0 1.60254216621e-10)
(-88.3219999996 0 2.43195533738e-11)
(-88.3219999999 0 3.07304418088e-10)
(-88.3220000002 0 -1.25736972734e-10)
(-88.3219999994 0 6.63151904298e-11)
(-88.3220000006 0 2.47857673793e-12)
(-88.3220000014 0 -1.09947953281e-11)
(-88.3220000009 0 -7.09997249051e-11)
(-88.3219999981 0 7.87421463777e-11)
(-88.321999997 0 -2.75555881108e-10)
(-88.3220000021 0 -2.77043457013e-11)
(-88.3220000026 0 -2.02685001167e-10)
(-88.3219999978 0 -3.44906472473e-10)
(-88.3219999981 0 3.47059273316e-10)
(-88.3219999995 0 2.65932242746e-10)
(-88.3220000018 0 1.52085676799e-10)
(-88.3220000025 0 -3.70025503359e-10)
(-88.3219999988 0 -2.09050230442e-10)
(-88.3219999983 0 -7.30435085931e-11)
(-88.3220000015 0 -3.75967707663e-11)
(-88.3220000017 0 2.2720615844e-10)
(-88.3219999985 0 -7.16309533135e-11)
(-88.3219999984 0 4.78754450833e-10)
(-88.322 0 -1.8068272351e-10)
(-88.3220000001 0 3.13765949826e-10)
(-88.3219999999 0 3.14584922978e-10)
(-88.3220000007 0 -1.00344448892e-10)
(-88.322 0 -1.39669466394e-11)
(-88.3219999998 0 9.73364827651e-11)
(-88.3220000005 0 3.49269374717e-11)
(-88.3219999998 0 -2.66778757598e-10)
(-88.3220000003 0 -4.94200730281e-10)
(-88.322 0 6.22558865476e-10)
(-88.3219999995 0 6.96401602703e-10)
(-88.3220000002 0 1.31313249766e-11)
(-88.322 0 3.18066513375e-10)
(-88.322 0 -1.6365909315e-10)
(-88.322 0 -2.59164503292e-10)
(-88.322 0 2.07949487091e-10)
(-88.3220000001 0 -1.12393701497e-10)
(-88.322 0 9.56612736175e-11)
(-88.322 0 -2.35071723386e-10)
(-88.322 0 -4.09639037313e-10)
(-88.322 0 -3.60019580159e-10)
(-88.322 0 -3.49201127142e-10)
(-88.322 0 -4.46356455577e-10)
(-88.322 0 -3.97232177411e-10)
(-88.322 0 -6.67754399418e-11)
(-88.322 0 3.20351342861e-10)
(-88.3220000001 0 -1.0611835469e-10)
(-88.3219999997 0 6.75093992013e-11)
(-88.322 0 -1.22476029281e-10)
(-88.3220000001 0 -3.19494006518e-10)
(-88.3219999999 0 4.23103848428e-10)
(-88.322 0 -2.03698381475e-10)
(-88.3220000002 0 -1.41815359626e-10)
(-88.322 0 -3.7962474196e-10)
(-88.3219999999 0 1.00117625045e-09)
(-88.322 0 3.73388243308e-10)
(-88.3220000001 0 -8.41056897374e-10)
(-88.3220000002 0 -1.16739557089e-09)
(-88.322 0 -4.6648050261e-10)
(-88.3219999992 0 9.42803656027e-11)
(-88.3219999986 0 1.33691554167e-10)
(-88.322 0 -4.00256612044e-11)
(-88.3220000001 0 2.28290226492e-10)
(-88.3219999998 0 -1.93985794539e-10)
(-88.3220000001 0 1.73138484352e-10)
(-88.322 0 -5.59172032763e-11)
(-88.3220000001 0 -1.37072481637e-10)
(-88.3220000002 0 2.59672568025e-10)
(-88.3219999998 0 5.59065586852e-10)
(-88.3220000003 0 7.31735293104e-10)
(-88.3220000002 0 -2.54497815343e-10)
(-88.322 0 -5.72764884685e-10)
(-88.3220000006 0 5.57875441098e-10)
(-88.3219999987 0 5.78137727573e-10)
(-88.3219999986 0 -4.1880668792e-10)
(-88.3220000002 0 -3.66536162554e-10)
(-88.3220000011 0 -6.58942256375e-10)
(-88.322000001 0 4.72424343371e-10)
(-88.3219999994 0 5.74816790836e-10)
(-88.3219999992 0 -2.19050993113e-10)
(-88.3219999998 0 -2.07113872204e-10)
(-88.3220000004 0 6.36581913343e-10)
(-88.3219999993 0 6.01715687478e-10)
(-88.3220000002 0 -1.04009265684e-10)
(-88.3220000001 0 -1.95636795583e-10)
(-88.3219999989 0 -1.0605354243e-10)
(-88.3220000008 0 1.28300144641e-10)
(-88.3220000008 0 -1.23805990227e-10)
(-88.3219999998 0 8.03949223481e-11)
(-88.3219999999 0 8.19868410477e-11)
(-88.3220000004 0 4.71879164368e-12)
(-88.322 0 -5.13800841621e-10)
(-88.322 0 4.89655767482e-10)
(-88.3220000002 0 6.9357761894e-10)
(-88.322 0 -4.80363031875e-10)
(-88.3220000003 0 -7.71122795144e-10)
(-88.322 0 8.9727218025e-10)
(-88.3219999997 0 4.59654440396e-10)
(-88.3219999999 0 -3.6805364665e-10)
(-88.3219999999 0 -4.88430890798e-10)
(-88.322 0 2.30480619129e-10)
(-88.3220000005 0 -3.08894843218e-10)
(-88.3220000011 0 -7.54948836909e-11)
(-88.3220000003 0 -3.93169048107e-10)
(-88.3219999998 0 6.47924162183e-11)
(-88.3220000001 0 -6.7435080118e-10)
(-88.3219999999 0 -6.1190884007e-10)
(-88.3219999993 0 5.81856086021e-10)
(-88.3219999984 0 2.86764927182e-11)
(-88.322 0 -4.7153262829e-10)
(-88.3220000012 0 1.96007108999e-10)
(-88.3219999994 0 -4.81445582061e-10)
(-88.3219999999 0 4.53298440342e-10)
(-88.322 0 1.0610109268e-10)
(-88.3220000005 0 -3.7253943743e-10)
(-88.3220000012 0 -4.26070701249e-10)
(-88.3220000003 0 -4.52596634379e-10)
(-88.321999998 0 -1.73205077454e-10)
(-88.3219999977 0 -2.29194767379e-10)
(-88.322000002 0 -1.74568855861e-10)
(-88.322000003 0 9.19962092597e-11)
(-88.3220000002 0 6.8140462181e-11)
(-88.3219999999 0 9.39796979895e-11)
(-88.322 0 6.93325157721e-10)
(-88.3220000001 0 2.08995290733e-10)
(-88.322 0 -9.28087578892e-11)
(-88.3219999999 0 1.83628466776e-10)
(-88.322 0 -2.27323396124e-10)
(-88.322 0 5.08018785507e-11)
(-88.322 0 1.87652828093e-11)
(-88.322 0 4.11415771955e-11)
(-88.322 0 4.49598289653e-11)
(-88.322 0 1.07035148722e-10)
(-88.3219999997 0 -4.34772119597e-11)
(-88.3219999997 0 1.80901255949e-10)
(-88.3220000006 0 -2.27047604619e-11)
(-88.3220000002 0 4.72752164895e-10)
(-88.3219999997 0 3.84348436705e-10)
(-88.322 0 -3.41817418196e-10)
(-88.322 0 -2.539696299e-10)
(-88.322 0 -3.34264563984e-10)
(-88.322 0 5.70046159721e-10)
(-88.322 0 4.93769862121e-10)
(-88.322 0 -5.54377346727e-10)
(-88.3219999998 0 -5.01250549421e-10)
(-88.322 0 3.43046005424e-10)
(-88.322 0 5.67171270461e-10)
(-88.322 0 -2.39137023933e-10)
(-88.322 0 6.20259997493e-10)
(-88.3219999994 0 -1.9718669155e-10)
(-88.3219999999 0 6.99693959404e-11)
(-88.3220000007 0 -1.02412638565e-10)
(-88.3219999996 0 -3.16309353692e-10)
(-88.3219999999 0 1.25333731714e-10)
(-88.3220000017 0 -1.01938916717e-10)
(-88.3219999988 0 6.84153458525e-12)
(-88.321999998 0 -1.04703346822e-10)
(-88.3220000019 0 5.01407461867e-11)
(-88.3220000024 0 1.02949382981e-10)
(-88.3219999975 0 -8.62106221231e-11)
(-88.3219999976 0 3.99457806172e-10)
(-88.3220000024 0 -4.0951309106e-11)
(-88.3220000018 0 4.6568030052e-11)
(-88.3219999988 0 -1.00257969847e-10)
(-88.3219999998 0 1.52501621303e-12)
(-88.3220000006 0 -1.15740596781e-10)
(-88.3220000002 0 2.37177490839e-10)
(-88.3219999997 0 4.41274347705e-10)
(-88.3220000006 0 3.58594571211e-10)
(-88.3220000013 0 3.81475237562e-10)
(-88.3219999975 0 3.023734759e-10)
(-88.3219999989 0 5.68382089634e-10)
(-88.322000002 0 1.95547197477e-10)
(-88.3219999998 0 -3.9234797052e-10)
(-88.3220000002 0 1.09250487074e-10)
(-88.3219999991 0 -2.43314292449e-10)
(-88.3219999989 0 2.30744610652e-10)
(-88.3220000017 0 6.31149736506e-10)
(-88.3220000009 0 -5.84809629198e-10)
(-88.3220000001 0 -2.16603073655e-10)
(-88.3219999996 0 4.55858876718e-10)
(-88.3219999996 0 3.4474164372e-11)
(-88.3219999998 0 -5.32387675806e-10)
(-88.3219999994 0 -1.1790895795e-09)
(-88.3219999997 0 8.79939277408e-10)
(-88.3220000001 0 1.08333729229e-09)
(-88.322 0 8.46473832806e-10)
(-88.3220000005 0 -3.29610801648e-10)
(-88.3220000001 0 -1.60112976167e-10)
(-88.322 0 3.02827226274e-10)
(-88.3220000004 0 -4.55970047422e-11)
(-88.322 0 -7.34927245262e-11)
(-88.3219999996 0 -5.11291401163e-12)
(-88.322 0 -9.80715250585e-12)
(-88.322 0 5.01194943603e-11)
(-88.322 0 1.42512232564e-11)
(-88.322 0 -1.20424843516e-11)
(-88.3220000001 0 8.64255333279e-11)
(-88.3220000002 0 -3.16679461228e-10)
(-88.3219999995 0 -3.29811320476e-10)
(-88.3219999998 0 6.22502928921e-11)
(-88.3220000004 0 -3.07120903292e-11)
(-88.322 0 4.09940033953e-11)
(-88.3220000002 0 1.92906929301e-10)
(-88.3219999994 0 1.80943500276e-10)
(-88.3219999993 0 -3.35568623211e-11)
(-88.3220000017 0 -7.94755987598e-12)
(-88.3220000012 0 4.07639704762e-11)
(-88.321999998 0 4.640353336e-11)
(-88.3219999983 0 1.03878843144e-10)
(-88.3220000005 0 -1.28051975287e-10)
(-88.3220000001 0 1.57321793912e-10)
(-88.322 0 9.23814667513e-12)
(-88.3219999999 0 2.92690452112e-10)
(-88.3220000006 0 2.91624239264e-10)
(-88.3220000015 0 4.09805328209e-10)
(-88.3219999993 0 -4.13492960498e-11)
(-88.3219999994 0 1.47694691437e-10)
(-88.3220000005 0 4.37062431903e-10)
(-88.3220000001 0 -4.02989691663e-11)
(-88.322 0 -5.83036616201e-10)
(-88.3219999998 0 -8.08946594008e-10)
(-88.3220000002 0 2.62687342302e-10)
(-88.3219999997 0 9.70283773505e-10)
(-88.3219999999 0 -1.1688038234e-09)
(-88.3220000004 0 -2.94899344109e-10)
(-88.3219999999 0 1.28049201837e-10)
(-88.322 0 4.22101038109e-10)
(-88.322 0 -1.91194084788e-10)
(-88.322 0 2.54898464235e-10)
(-88.322 0 8.76459419114e-11)
(-88.322 0 3.5536653909e-10)
(-88.3219999999 0 -4.82582543152e-11)
(-88.3220000002 0 6.67206731029e-10)
(-88.3219999997 0 5.19377327831e-10)
(-88.3219999996 0 -4.99442482837e-10)
(-88.3220000004 0 -1.58319822041e-10)
(-88.3220000001 0 3.45732624232e-10)
(-88.3220000009 0 2.61908894361e-11)
(-88.3219999992 0 3.84877249762e-10)
(-88.3219999982 0 -4.88847020387e-10)
(-88.3220000016 0 -9.76088646447e-11)
(-88.3220000021 0 -2.59987086116e-10)
(-88.3219999991 0 2.31106928909e-10)
(-88.3219999998 0 1.09771186883e-10)
(-88.3219999998 0 -2.97153890154e-10)
(-88.3220000001 0 8.54118605318e-10)
(-88.3219999992 0 7.51814708675e-10)
(-88.3219999984 0 4.36466588484e-10)
(-88.3220000002 0 1.73080709457e-10)
(-88.3220000005 0 -4.41087734999e-11)
(-88.3220000002 0 -1.40790653636e-10)
(-88.3219999988 0 -2.64831926671e-10)
(-88.3219999999 0 4.87881771475e-10)
(-88.3220000006 0 6.82561617514e-10)
(-88.3219999999 0 1.85622312554e-11)
(-88.3219999999 0 4.46759537201e-10)
(-88.3219999999 0 3.18304896567e-10)
(-88.322 0 -4.83949198984e-10)
(-88.3220000001 0 2.83943523401e-11)
(-88.3219999998 0 1.01379547816e-10)
(-88.3220000003 0 -6.76638836206e-11)
(-88.3220000004 0 2.39994448819e-10)
(-88.3219999998 0 2.1128009199e-10)
(-88.3219999997 0 -6.23503779706e-10)
(-88.3219999998 0 5.31703328042e-10)
(-88.3219999996 0 4.42840360075e-10)
(-88.3219999997 0 5.91371960583e-10)
(-88.3220000004 0 1.1920123796e-10)
(-88.3220000004 0 -8.03028511145e-10)
(-88.3219999999 0 -2.72086382959e-10)
(-88.3219999997 0 9.70874308564e-10)
(-88.3219999998 0 1.16442403789e-09)
(-88.3220000004 0 -7.04985359023e-10)
(-88.3219999999 0 -6.71880909416e-10)
(-88.3219999998 0 -5.0648546701e-10)
(-88.3219999998 0 -1.4030543625e-10)
(-88.3219999989 0 1.27698063383e-10)
(-88.3219999997 0 -5.38409255172e-10)
(-88.3220000015 0 5.9686083531e-10)
(-88.3220000001 0 8.57993764238e-10)
(-88.3219999989 0 -1.71573079554e-10)
(-88.3220000021 0 -3.76836960103e-10)
(-88.3220000008 0 1.08929454401e-10)
(-88.3219999994 0 2.06331446298e-10)
(-88.3220000002 0 1.28248270444e-10)
(-88.3219999988 0 -1.51160127886e-10)
(-88.3220000004 0 -8.61539349773e-12)
(-88.322 0 -5.7203365258e-11)
(-88.3219999999 0 5.35707096669e-12)
(-88.3220000004 0 7.95113954149e-11)
(-88.3219999995 0 5.72212814167e-11)
(-88.3220000001 0 -3.39171409755e-11)
(-88.322 0 2.8043482527e-11)
(-88.322 0 1.53160273135e-11)
(-88.322 0 1.18344507496e-11)
(-88.322 0 5.89109716903e-12)
(-88.3220000002 0 -1.03622830313e-10)
(-88.3219999998 0 3.35439799628e-10)
(-88.3220000002 0 -2.57203520006e-10)
(-88.3220000003 0 -8.57382552565e-11)
(-88.3219999994 0 -2.9878220527e-11)
(-88.3220000002 0 1.63625851833e-10)
(-88.3220000001 0 3.21599487357e-10)
(-88.3219999998 0 -4.38060064739e-10)
(-88.3220000013 0 -5.26603519864e-10)
(-88.3220000001 0 3.07089418823e-10)
(-88.3219999995 0 4.17710464413e-10)
(-88.3220000007 0 5.95367549154e-11)
(-88.3219999981 0 4.42860990403e-10)
(-88.3219999977 0 -1.00411452907e-10)
(-88.3220000002 0 5.52704540106e-10)
(-88.3220000009 0 -2.44104341174e-10)
(-88.322000001 0 -8.35060584681e-11)
(-88.322000001 0 -2.79352326881e-10)
(-88.3220000005 0 5.45029999331e-10)
(-88.3219999988 0 2.14616058234e-11)
(-88.3219999982 0 -3.63977492528e-10)
(-88.3220000014 0 6.48643538224e-11)
(-88.3220000005 0 3.96294372247e-11)
(-88.3219999989 0 5.78395258439e-11)
(-88.322000002 0 -1.11423921158e-10)
(-88.3220000006 0 6.03249137426e-11)
(-88.3219999989 0 -2.01756596863e-10)
(-88.3220000002 0 -1.73181600563e-10)
(-88.3219999998 0 4.05286059274e-10)
(-88.3219999996 0 -3.85631354291e-10)
(-88.3220000014 0 -3.07826692007e-10)
(-88.3219999992 0 -5.98016414741e-11)
(-88.3219999982 0 -1.24054919584e-10)
(-88.3219999998 0 2.73883214318e-11)
(-88.3220000009 0 -3.13214945687e-10)
(-88.3220000022 0 -1.5870599865e-10)
(-88.322 0 5.37313217409e-11)
(-88.3219999981 0 -6.04801300328e-12)
(-88.3219999984 0 -3.92900233838e-12)
(-88.3220000013 0 -4.60614370588e-11)
(-88.322000002 0 3.9804114243e-12)
(-88.322 0 -6.56917893143e-11)
(-88.321999999 0 -7.78066036459e-11)
(-88.3219999988 0 5.15787319576e-11)
(-88.3220000007 0 -3.84893841722e-10)
(-88.3219999996 0 -3.86449871365e-10)
(-88.3219999987 0 -6.5036384494e-10)
(-88.3220000009 0 3.7918765732e-10)
(-88.3220000019 0 -5.07664375464e-10)
(-88.322 0 -3.93257288422e-10)
(-88.3219999989 0 8.83471351929e-10)
(-88.3219999999 0 2.22105280232e-10)
(-88.3220000006 0 -1.18713742865e-10)
(-88.3220000005 0 -5.28921941919e-10)
(-88.3219999995 0 -1.51476716067e-10)
(-88.3219999999 0 6.66389791276e-10)
(-88.3220000001 0 -2.33480084808e-10)
(-88.3219999999 0 -6.82440467665e-11)
(-88.3220000001 0 7.05074343536e-11)
(-88.322 0 1.06281498954e-10)
(-88.3219999999 0 -2.47694507227e-10)
(-88.322 0 8.07828934436e-11)
(-88.322 0 5.01811518033e-11)
(-88.3220000001 0 1.59850555654e-11)
(-88.3219999995 0 -7.98255079569e-12)
(-88.322 0 -5.72931044129e-11)
(-88.3220000005 0 3.41655163036e-11)
(-88.3219999999 0 -5.31387864202e-11)
(-88.3219999997 0 1.49771675888e-10)
(-88.3220000002 0 -5.94490877324e-11)
(-88.3220000004 0 6.16179901071e-11)
(-88.3219999997 0 -6.39182410109e-11)
(-88.3220000001 0 5.22904968415e-11)
(-88.3220000002 0 3.16407096003e-10)
(-88.3219999997 0 -1.20310056082e-11)
(-88.3219999998 0 1.11596571464e-10)
(-88.3220000002 0 4.98687147169e-10)
(-88.3219999999 0 -5.57025758636e-10)
(-88.3219999996 0 -5.60004372392e-10)
(-88.3219999997 0 1.78218974355e-11)
(-88.3220000003 0 2.97826000958e-10)
(-88.3220000006 0 -1.0251821212e-10)
(-88.322 0 1.10349536187e-10)
(-88.3220000006 0 2.55943785075e-10)
(-88.3219999998 0 -4.5173366645e-10)
(-88.3219999998 0 -7.15071208971e-10)
(-88.3219999999 0 1.81111104173e-10)
(-88.3220000002 0 -4.48055243521e-10)
(-88.3219999999 0 -3.6435588861e-10)
(-88.3220000001 0 4.8165049218e-10)
(-88.3220000005 0 -5.42253412895e-11)
(-88.3219999985 0 -1.24182541295e-10)
(-88.3220000008 0 1.03889368705e-10)
(-88.322000002 0 -2.18651142241e-10)
(-88.3219999992 0 -9.92033394349e-11)
(-88.3219999993 0 4.24315548139e-10)
(-88.3219999995 0 -5.30106046304e-10)
(-88.322 0 -3.70371503387e-10)
(-88.322 0 -5.75622173288e-10)
(-88.3219999998 0 3.39148511737e-11)
(-88.3220000002 0 5.11739996821e-10)
(-88.322 0 1.99684832991e-11)
(-88.3219999999 0 -4.03017519703e-10)
(-88.3219999998 0 -7.89938202085e-10)
(-88.3220000005 0 2.44968504109e-10)
(-88.322 0 1.85300380152e-10)
(-88.3219999995 0 2.87173222516e-10)
(-88.3220000004 0 -2.73663174665e-10)
(-88.3219999998 0 -3.25633328652e-10)
(-88.3220000002 0 9.22132150101e-11)
(-88.3219999999 0 -5.56761280642e-10)
(-88.322 0 -5.3928365282e-10)
(-88.3220000003 0 -8.81053031656e-11)
(-88.3219999994 0 4.32848825779e-10)
(-88.3219999996 0 -9.4276671516e-11)
(-88.3220000014 0 -1.13982926539e-10)
(-88.3220000017 0 -1.26470356694e-10)
(-88.3219999989 0 -5.86195460122e-11)
(-88.3219999979 0 2.61811234849e-10)
(-88.3220000002 0 -6.94969779691e-11)
(-88.3220000014 0 1.2070747968e-10)
(-88.3219999999 0 -4.14221635946e-11)
(-88.3219999992 0 -3.06344561197e-11)
(-88.3220000007 0 5.4787967197e-11)
(-88.322 0 -2.01388492608e-11)
(-88.3219999994 0 -1.473191406e-11)
(-88.3220000002 0 -5.98373228584e-11)
(-88.3220000001 0 -2.20075250694e-11)
(-88.3220000003 0 5.55300349994e-11)
(-88.3219999997 0 -2.20966785017e-10)
(-88.3220000002 0 7.72097998938e-11)
(-88.322 0 1.49594517584e-10)
(-88.3219999994 0 -1.97211165095e-10)
(-88.3220000003 0 -2.58260926502e-10)
(-88.3220000001 0 1.60934907666e-10)
(-88.3219999998 0 6.69613129568e-10)
(-88.3220000006 0 6.40515771085e-10)
(-88.3220000003 0 -2.66516360798e-10)
(-88.3219999999 0 -4.17832866577e-10)
(-88.3219999998 0 -2.97837450908e-10)
(-88.3219999995 0 -4.96791043044e-10)
(-88.3219999998 0 1.89024864843e-10)
(-88.3219999991 0 -4.77397603746e-10)
(-88.3219999992 0 3.59120159732e-10)
(-88.3220000013 0 -2.23374631108e-10)
(-88.3220000005 0 1.71343804261e-10)
(-88.3220000003 0 -3.44171109811e-10)
(-88.322 0 4.89540307648e-11)
(-88.322 0 -6.07920753788e-11)
(-88.322 0 1.08833804489e-11)
(-88.322 0 -8.48076162738e-11)
(-88.322 0 1.00228213526e-10)
(-88.322 0 5.33113277643e-11)
(-88.322 0 -1.06680403512e-10)
(-88.3220000001 0 1.99952929502e-10)
(-88.322 0 1.67756580679e-10)
(-88.322 0 -4.99164972027e-10)
(-88.322 0 5.90565147422e-10)
(-88.322 0 5.43912812578e-10)
(-88.3220000001 0 5.43048030121e-11)
(-88.3219999999 0 1.23979311901e-10)
(-88.322 0 -5.81402334239e-11)
(-88.322 0 1.05093504687e-10)
(-88.322 0 -8.56448273895e-12)
(-88.322 0 -4.8717718604e-12)
(-88.322 0 2.55205855383e-11)
(-88.322 0 -3.24104989756e-11)
(-88.322 0 1.48773786267e-11)
(-88.322 0 -2.88756777204e-11)
(-88.322 0 2.24558339912e-10)
(-88.322 0 -9.46002777731e-11)
(-88.322 0 -4.83819026738e-11)
(-88.322 0 1.19531365095e-10)
(-88.322 0 -2.20542879323e-11)
(-88.322 0 6.11559986149e-11)
(-88.322 0 -2.54646664225e-10)
(-88.322 0 6.00698777117e-11)
(-88.322 0 -1.27943805839e-10)
(-88.322 0 1.27420834062e-12)
(-88.322 0 1.80397353791e-10)
(-88.3220000004 0 -2.27364991946e-10)
(-88.3219999998 0 1.92781712848e-10)
(-88.3219999996 0 -2.36310662945e-10)
(-88.3220000001 0 -7.67775253151e-10)
(-88.322 0 2.09149705804e-10)
(-88.3220000001 0 3.50692332481e-10)
(-88.322 0 -5.70516952201e-11)
(-88.322 0 -1.02504147458e-10)
(-88.322 0 2.52843915514e-10)
(-88.3220000001 0 -1.179856222e-10)
(-88.322 0 -4.30124600963e-11)
(-88.3219999999 0 -3.93966533442e-11)
(-88.322 0 -7.89477670194e-11)
(-88.3219999999 0 1.81753732473e-10)
(-88.3219999998 0 -5.79687382281e-12)
(-88.3220000004 0 2.44891018005e-10)
(-88.3220000005 0 -6.75479065452e-11)
(-88.3219999995 0 -9.2191312799e-11)
(-88.3219999986 0 -2.1065567766e-10)
(-88.3219999988 0 7.89589953759e-11)
(-88.322000002 0 1.45791497819e-10)
(-88.3220000024 0 -2.36879718647e-10)
(-88.3219999996 0 -1.16338528827e-10)
(-88.3219999999 0 -1.34914494094e-11)
(-88.3219999992 0 -1.42701244391e-10)
(-88.3219999998 0 8.01206817159e-11)
(-88.3219999992 0 6.59391230106e-11)
(-88.3219999992 0 -1.07835663926e-09)
(-88.3220000006 0 -9.9067026548e-10)
(-88.322 0 -2.4757969597e-10)
(-88.3219999996 0 1.91118171301e-10)
(-88.3220000001 0 1.2789281858e-10)
(-88.3219999998 0 -2.00202604564e-10)
(-88.3219999999 0 -6.85874573861e-11)
(-88.3219999997 0 1.00265081453e-10)
(-88.3219999999 0 7.06693536894e-11)
(-88.3220000003 0 -1.66545620551e-10)
(-88.3219999999 0 -1.96613236907e-10)
(-88.322 0 -2.93642255507e-11)
(-88.322 0 -1.01822426261e-10)
(-88.322 0 2.94261038346e-11)
(-88.3219999999 0 -4.15351237962e-11)
(-88.3220000002 0 -2.54382687852e-11)
(-88.3220000001 0 -2.12478658301e-11)
(-88.3219999998 0 -3.76636003299e-11)
(-88.322 0 -4.92097532186e-11)
(-88.322 0 -5.08022686686e-11)
(-88.322 0 -2.8015882205e-12)
(-88.322 0 5.96560053677e-11)
(-88.322 0 -1.74415860683e-10)
(-88.3219999998 0 -7.71299163433e-11)
(-88.3219999998 0 5.82413033106e-10)
(-88.322 0 3.99621162723e-10)
(-88.3220000001 0 -4.98663038618e-10)
(-88.3220000001 0 -3.61345357642e-10)
(-88.322 0 -9.84932848219e-11)
(-88.3219999998 0 8.33116286508e-11)
(-88.3220000003 0 -2.03642011795e-10)
(-88.3220000004 0 1.58221312761e-10)
(-88.322 0 -1.59563871993e-10)
(-88.3220000002 0 -4.16314965545e-10)
(-88.3219999995 0 -3.44326800885e-10)
(-88.3219999989 0 3.37776648593e-10)
(-88.3220000018 0 -4.62074321039e-10)
(-88.3220000017 0 -4.93579154885e-10)
(-88.321999999 0 -4.32510947751e-10)
(-88.3219999998 0 4.79134828556e-10)
(-88.3219999993 0 3.41210171029e-10)
(-88.321999999 0 -3.92823041405e-10)
(-88.3220000003 0 -2.4150110785e-10)
(-88.322 0 5.73820590414e-10)
(-88.322 0 1.41013615832e-10)
(-88.3220000001 0 -4.05614923183e-10)
(-88.322 0 -6.21032468896e-10)
(-88.322 0 2.41192187752e-10)
(-88.3220000002 0 -2.45335656121e-10)
(-88.3219999998 0 -1.15391501788e-10)
(-88.3219999996 0 -5.31600898013e-10)
(-88.322 0 4.21673734363e-10)
(-88.3220000002 0 -1.5795492718e-10)
(-88.322 0 7.66295637307e-11)
(-88.3220000007 0 3.70499454428e-10)
(-88.3219999998 0 -4.61678316781e-10)
(-88.3219999991 0 -1.06791422703e-09)
(-88.3220000012 0 -1.27842495398e-09)
(-88.3220000008 0 -4.85218166795e-10)
(-88.3219999994 0 1.11096104912e-09)
(-88.3219999998 0 6.32727491649e-10)
(-88.3219999992 0 -7.95982450065e-11)
(-88.3219999994 0 -7.98658046303e-10)
(-88.3220000014 0 8.37283944726e-10)
(-88.3220000013 0 -5.10747230014e-11)
(-88.3219999995 0 -2.00130950938e-10)
(-88.3219999993 0 -5.17253477843e-11)
(-88.322 0 1.11454712722e-10)
(-88.3220000008 0 4.44364949662e-11)
(-88.3220000004 0 3.28472209356e-10)
(-88.3219999994 0 -2.49842677745e-10)
(-88.3219999998 0 2.3021332873e-10)
(-88.3220000006 0 -2.85738661896e-10)
(-88.3220000005 0 2.89898180049e-10)
(-88.3219999997 0 3.22906971077e-10)
(-88.322 0 -2.64003986359e-10)
(-88.3219999998 0 -4.44918288768e-10)
(-88.322 0 -1.24062951912e-10)
(-88.3220000001 0 -4.98367903721e-10)
(-88.322 0 -4.6183537978e-10)
(-88.3220000001 0 -1.12985907391e-10)
(-88.322 0 7.12145732449e-11)
(-88.322 0 5.55375118823e-11)
(-88.3219999999 0 1.28616527696e-10)
(-88.3219999998 0 -4.02884423454e-10)
(-88.3220000004 0 -7.97572167499e-10)
(-88.3220000002 0 3.60522435417e-10)
(-88.3219999984 0 3.46038064509e-10)
(-88.321999999 0 8.21197546021e-10)
(-88.3220000022 0 -5.29812854468e-10)
(-88.3220000015 0 -5.32455123292e-10)
(-88.3219999992 0 3.39906274304e-10)
(-88.3219999992 0 3.22198661362e-10)
(-88.3220000002 0 3.1913621743e-10)
(-88.3219999999 0 1.01235776207e-10)
(-88.322 0 3.81391173105e-10)
(-88.3220000011 0 1.03386427162e-10)
(-88.3220000003 0 6.1839737397e-11)
(-88.3219999985 0 9.9039573861e-11)
(-88.3220000002 0 -1.56736296521e-10)
(-88.3220000016 0 -4.0972086082e-10)
(-88.3220000004 0 5.88766593555e-10)
(-88.3219999979 0 8.97879303873e-10)
(-88.321999998 0 5.86232285388e-10)
(-88.3220000017 0 7.98704154922e-10)
(-88.3220000012 0 -6.01780372051e-10)
(-88.3219999982 0 -6.65061231122e-11)
(-88.3219999992 0 5.56149878239e-11)
(-88.322000002 0 -8.41887941032e-11)
(-88.3220000014 0 6.7676133002e-11)
(-88.3219999987 0 -1.25687613319e-10)
(-88.3219999993 0 6.18726001699e-11)
(-88.3220000006 0 -1.31270273098e-10)
(-88.3220000006 0 -3.31728211689e-10)
(-88.3219999988 0 2.6789875289e-10)
(-88.321999999 0 3.80653567288e-10)
(-88.3220000011 0 5.176598418e-10)
(-88.3219999994 0 -3.63707906963e-10)
(-88.3220000005 0 -3.66118270659e-10)
(-88.3220000013 0 8.4378856153e-10)
(-88.3220000004 0 1.44916349575e-10)
(-88.3220000009 0 1.25898289483e-10)
(-88.3219999978 0 3.69117185319e-10)
(-88.3219999975 0 5.86098087558e-10)
(-88.3220000023 0 7.32737724885e-10)
(-88.3220000019 0 -2.74814649909e-10)
(-88.3219999979 0 -4.89471412888e-10)
(-88.3219999977 0 -2.00594949288e-10)
(-88.3220000012 0 4.73933834661e-10)
(-88.3220000006 0 4.68764811141e-10)
(-88.3219999992 0 3.19186992494e-10)
(-88.322 0 -2.3847151927e-10)
(-88.3219999997 0 -2.3919615596e-10)
(-88.3220000004 0 1.65277082375e-10)
(-88.322 0 -2.66006533101e-11)
(-88.3219999998 0 -9.12999779568e-11)
(-88.3219999998 0 -1.47577578918e-10)
(-88.3219999991 0 1.73983586274e-10)
(-88.322000001 0 1.40422950932e-10)
(-88.3220000015 0 5.09193003608e-11)
(-88.3219999997 0 -4.65837373304e-11)
(-88.322 0 -4.18116587187e-10)
(-88.3220000005 0 -1.88097060001e-11)
(-88.3219999995 0 -1.07971575488e-10)
(-88.321999999 0 -1.35050615498e-10)
(-88.3219999994 0 9.65303535806e-11)
(-88.3219999999 0 -1.45434159163e-10)
(-88.3220000009 0 -1.25372111182e-11)
(-88.3220000019 0 -7.27582526353e-12)
(-88.3219999986 0 -7.28420831892e-11)
(-88.3219999978 0 2.07015003383e-10)
(-88.3219999989 0 -7.46644348064e-12)
(-88.3220000016 0 -3.95404477528e-10)
(-88.3220000028 0 -2.5167927638e-10)
(-88.3219999985 0 3.4601875151e-10)
(-88.3219999984 0 5.12538544018e-10)
(-88.322 0 9.39610146865e-11)
(-88.3220000001 0 -4.64333880099e-11)
(-88.3220000001 0 2.07444090234e-10)
(-88.3220000004 0 -1.09711871842e-10)
(-88.3220000006 0 1.73042768094e-10)
(-88.3220000001 0 4.24352795366e-10)
(-88.322 0 3.39732717956e-10)
(-88.3219999998 0 -3.2388587468e-10)
(-88.3220000004 0 5.69817063047e-10)
(-88.3219999993 0 2.58154550787e-10)
(-88.3219999988 0 6.90258955636e-10)
(-88.3220000001 0 -5.31026092447e-10)
(-88.3220000017 0 -3.46325670771e-10)
(-88.3220000007 0 5.43972816301e-10)
(-88.3219999991 0 1.86896685562e-10)
(-88.322 0 -5.92504831269e-10)
(-88.3220000001 0 -1.35857545054e-10)
(-88.3220000002 0 3.85601104724e-10)
(-88.322 0 6.50984722428e-10)
(-88.3219999999 0 -4.38297015052e-10)
(-88.3220000009 0 2.47193227585e-10)
(-88.3219999991 0 8.60633680413e-11)
(-88.3219999981 0 5.48556996756e-10)
(-88.3219999996 0 -4.52515019385e-10)
(-88.3220000018 0 3.02428570974e-11)
(-88.3220000018 0 1.83516128825e-10)
(-88.3219999982 0 -6.61601355972e-10)
(-88.3219999988 0 1.20710813843e-10)
(-88.3220000005 0 8.5600606484e-10)
(-88.3220000007 0 8.14359920894e-10)
(-88.322 0 5.26531389361e-10)
(-88.3219999989 0 -4.51212652457e-10)
(-88.3220000014 0 -6.4153449315e-10)
(-88.3220000015 0 5.41872011514e-10)
(-88.3219999994 0 5.55264185898e-10)
(-88.3219999996 0 -4.5637696671e-10)
(-88.322 0 -5.54233024943e-10)
(-88.3219999999 0 1.47315648828e-10)
(-88.322 0 -1.80539005615e-10)
(-88.322 0 -4.73805415714e-11)
(-88.322 0 1.50844766327e-10)
(-88.322 0 -2.70999012945e-10)
(-88.322 0 1.79477966877e-10)
(-88.322 0 -1.54689386621e-10)
(-88.322 0 1.48705506794e-10)
(-88.322 0 -2.6213901253e-10)
(-88.322 0 -1.70212698635e-10)
(-88.3220000003 0 -2.46297692442e-10)
(-88.3220000007 0 1.6343118659e-11)
(-88.3219999999 0 4.091573109e-10)
(-88.3219999994 0 1.91278473136e-10)
(-88.3220000002 0 -1.57551549156e-10)
(-88.3219999997 0 -3.24634930823e-10)
(-88.322 0 1.79437511295e-10)
(-88.3220000002 0 2.26034274949e-10)
(-88.3219999996 0 -2.96901658625e-10)
(-88.322 0 4.6167219976e-10)
(-88.322 0 7.95942945213e-10)
(-88.3220000001 0 -3.35545834061e-10)
(-88.3219999996 0 -3.54591519407e-10)
(-88.3219999996 0 -8.5299295153e-10)
(-88.3220000006 0 4.31639649788e-10)
(-88.322 0 4.8350934447e-10)
(-88.3219999998 0 -3.68192645291e-10)
(-88.3220000002 0 -3.30795621838e-10)
(-88.3219999999 0 -3.81844947658e-10)
(-88.322 0 -2.50954093924e-10)
(-88.322 0 -2.49667025338e-10)
(-88.322 0 -1.27413310269e-10)
(-88.322 0 1.37032408176e-10)
(-88.322 0 1.43905805118e-10)
(-88.3219999997 0 -1.63044678954e-10)
(-88.3220000004 0 4.16750144573e-10)
(-88.3220000003 0 -3.24578433456e-10)
(-88.3219999995 0 -8.16062144151e-10)
(-88.322 0 -6.32947908248e-10)
(-88.3219999997 0 -1.77153878792e-10)
(-88.3220000002 0 -1.75538553112e-11)
(-88.3220000005 0 -5.05509558358e-10)
(-88.3219999998 0 2.41233048506e-10)
(-88.322 0 4.02737812716e-10)
(-88.322 0 -3.90404373448e-10)
(-88.3220000004 0 8.98006020669e-11)
(-88.3220000002 0 -5.55127663932e-10)
(-88.3219999996 0 -4.83813031757e-10)
(-88.322 0 1.78596254187e-10)
(-88.3219999998 0 -8.88818319068e-10)
(-88.322 0 -5.51356546323e-10)
(-88.3219999999 0 -5.47553074149e-10)
(-88.3220000008 0 2.3802576715e-10)