/*--------------------------------*- C++ -*----------------------------------*\
  =========                 |
  \\      /  F ield         | OpenFOAM: The Open Source CFD Toolbox
   \\    /   O peration     | Website:  https://openfoam.org
    \\  /    A nd           | Version:  6
     \\/     M anipulation  |
\*---------------------------------------------------------------------------*/
FoamFile
{
    version     2.0;
    format      ascii;
    class       volScalarField;
    location    "5e-05";
    object      p;
}
// * * * * * * * * * * * * * * * * * * * * * * * * * * * * * * * * * * * * * //

dimensions      [1 -1 -2 0 0 0 0];

internalField   nonuniform List<scalar> 
8192
(
6000000.00084
5999999.99938
6000000.00023
6000000.00131
6000000.00523
5999999.99806
6000000.00208
5999999.99916
6000000.00071
5999999.99987
6000000.00019
5999999.99984
6000000.00056
6000000.00141
6000000.00081
6000000.0007
6000000.00056
5999999.99774
5999999.999
6000000.0006
5999999.99864
5999999.99738
6000000.00169
5999999.99983
5999999.99943
5999999.99986
5999999.99767
5999999.99896
5999999.99823
5999999.99877
6000000.00025
6000000.00079
5999999.99638
5999999.99396
6000000.00773
6000000.00746
5999999.99914
6000000.00423
5999999.99974
5999999.9966
6000000.00449
5999999.99724
6000000.00044
5999999.99987
6000000.00066
6000000.00048
6000000.00029
5999999.99955
5999999.9993
6000000.0017
5999999.99649
6000000.00102
6000000.00345
5999999.99537
5999999.99581
6000000.00118
5999999.99999
6000000.0036
6000000.00017
6000000.00637
5999999.99644
5999999.99711
5999999.99701
6000000.00293
6000000.001
6000000.00243
6000000.0002
6000000.00429
5999999.99522
6000000.00347
5999999.99852
5999999.99612
6000000.00239
6000000.0027
6000000.00678
5999999.99674
5999999.99467
6000000.00637
6000000.00244
5999999.99514
5999999.9945
5999999.99195
6000000.00317
6000000.00581
6000000.00014
5999999.99928
6000000.00637
6000000.00465
5999999.99705
5999999.99714
5999999.99814
5999999.99824
5999999.99677
6000000.00496
5999999.99653
6000000.00261
6000000.00165
5999999.99946
6000000.00374
5999999.99822
5999999.99974
5999999.99988
5999999.9997
6000000.0004
5999999.9986
6000000.00026
6000000.00012
6000000
5999999.99998
5999999.99998
6000000.00015
6000000.00044
5999999.99939
6000000.00075
5999999.99955
6000000.0018
6000000.00012
5999999.99841
6000000.00072
5999999.9988
5999999.99901
5999999.99864
6000000.00033
5999999.9985
6000000.00016
5999999.99953
6000000.00029
6000000.00031
6000000.00638
6000000.00054
5999999.99612
6000000.00077
5999999.9982
5999999.99961
5999999.99998
5999999.99949
6000000.00099
6000000.00086
5999999.99853
6000000.00363
6000000.00074
6000000.00318
6000000.00428
5999999.99673
5999999.99714
5999999.998
6000000.00213
6000000.0023
5999999.99989
5999999.99991
5999999.99874
6000000.00069
5999999.99456
6000000.00011
5999999.99672
5999999.99682
6000000.00181
6000000.00162
5999999.99811
5999999.99911
5999999.99977
5999999.99973
6000000.00008
6000000.00045
5999999.99957
6000000.0023
6000000.00018
6000000.00117
5999999.99737
6000000.00064
5999999.997
6000000.00354
6000000.00193
6000000.00273
6000000.00194
6000000.00413
6000000.00228
6000000.00003
5999999.99403
6000000.00321
6000000.00194
5999999.9977
6000000.00062
5999999.99781
6000000.00314
6000000.00046
6000000.00208
5999999.99244
5999999.9925
6000000.00187
6000000.00623
6000000.00418
5999999.99928
5999999.99902
6000000.00147
6000000.00062
5999999.99986
6000000.00001
5999999.99997
6000000.00001
6000000.00015
6000000.00015
5999999.99998
5999999.99717
5999999.9975
6000000.00325
5999999.99922
5999999.99997
6000000.00004
5999999.99998
6000000.00011
6000000.0003
6000000.00044
5999999.99954
5999999.99994
6000000.00018
5999999.99956
6000000.00066
5999999.99996
5999999.99471
6000000.00139
6000000.00199
5999999.99714
6000000.00093
6000000.00684
5999999.99412
5999999.99672
6000000.00526
6000000.00851
5999999.99188
5999999.99419
6000000.00125
6000000.00413
5999999.99521
6000000.00346
6000000.00048
6000000.00478
5999999.99827
6000000.00713
6000000.00358
5999999.99051
6000000.00058
6000000.00703
5999999.99872
6000000.00549
5999999.99323
5999999.99803
6000000.00117
6000000.00376
6000000.0041
6000000.00045
6000000.00243
6000000.00083
5999999.999
5999999.99932
5999999.99931
5999999.99999
5999999.9987
6000000.00069
5999999.99771
6000000.00186
5999999.99806
5999999.99948
5999999.99916
5999999.9996
5999999.99983
5999999.99996
6000000.00154
6000000.00157
5999999.99612
6000000.00047
6000000.00219
5999999.99983
6000000.00316
5999999.99547
5999999.99664
6000000.00506
6000000.00045
5999999.99629
5999999.99446
6000000.00001
5999999.99349
5999999.99858
5999999.99467
6000000.00185
6000000.00619
5999999.99571
6000000.00062
5999999.99913
6000000.0015
5999999.99921
5999999.99936
6000000.00162
5999999.99768
6000000.00248
6000000.00033
6000000.00009
6000000.00019
6000000.00001
6000000.00001
6000000.00006
6000000.00035
5999999.99886
6000000.00152
5999999.99745
5999999.99959
5999999.99781
6000000.00228
6000000.00643
5999999.99876
5999999.9933
6000000.00351
6000000.00776
5999999.99749
6000000.00352
5999999.99819
6000000.00772
5999999.99631
5999999.99613
5999999.99605
6000000.00152
6000000.00289
5999999.99443
6000000.00213
6000000.00135
5999999.99969
6000000.00124
5999999.99786
6000000.00059
6000000.00073
5999999.99728
6000000.00254
6000000.00219
6000000.00092
6000000.00022
5999999.99975
5999999.99686
5999999.9971
6000000.00092
6000000.0012
5999999.99975
5999999.9981
5999999.99722
6000000.00061
5999999.99653
6000000.00082
5999999.99641
5999999.99428
5999999.99664
6000000.00378
5999999.99694
5999999.99638
6000000.00724
5999999.99872
6000000.00317
5999999.99974
5999999.99593
6000000.0039
5999999.99476
6000000.00415
5999999.99999
5999999.9992
6000000.00157
5999999.9997
6000000.00132
6000000.00009
6000000.00118
6000000.00173
5999999.99782
6000000.00335
6000000.00169
5999999.99675
6000000.00201
6000000.00042
6000000
6000000.00391
5999999.99739
6000000.00438
6000000.00273
5999999.99409
5999999.99153
5999999.99516
5999999.9986
6000000.00153
6000000.00271
6000000.00354
5999999.99335
5999999.99132
6000000.00162
5999999.99578
5999999.99885
6000000.005
5999999.99808
5999999.99868
6000000.00264
5999999.99615
5999999.99794
6000000.0065
5999999.99608
5999999.99891
5999999.99446
6000000.00253
6000000.00524
5999999.9994
5999999.998
5999999.99174
6000000.0049
5999999.99883
6000000.0051
5999999.99915
5999999.99625
6000000.00364
5999999.99482
5999999.99403
6000000.00046
6000000.00277
5999999.99824
5999999.99808
5999999.99779
6000000.00184
6000000.00188
5999999.99704
6000000.00224
5999999.99837
5999999.99944
6000000.00124
5999999.99888
5999999.9995
5999999.99988
6000000.00083
6000000.00142
5999999.99723
6000000.00192
6000000.0006
5999999.99957
5999999.9976
6000000.00201
6000000.00044
5999999.99897
6000000.00211
6000000.00161
5999999.99752
5999999.99948
6000000.00039
5999999.99911
5999999.9962
5999999.99673
5999999.99862
5999999.99497
6000000.00301
6000000.0021
6000000.00007
6000000.00059
5999999.99884
6000000.00359
5999999.99801
6000000.00314
6000000.00198
5999999.99559
6000000.0045
6000000.00133
6000000.00051
6000000.00074
5999999.99806
6000000.00216
6000000.00047
5999999.99888
6000000.00151
6000000.0001
5999999.99908
5999999.99687
6000000.00514
5999999.99629
5999999.99961
6000000.00205
5999999.99653
6000000.00423
5999999.99549
6000000.00298
5999999.99896
5999999.99894
5999999.99707
6000000.00263
6000000.00627
5999999.99809
5999999.99802
6000000.00136
6000000.00289
5999999.99772
5999999.997
6000000.00655
5999999.9978
5999999.99965
5999999.99949
6000000.00099
6000000.00338
5999999.99764
6000000.00485
5999999.99836
5999999.99867
6000000.00218
6000000.00029
5999999.99962
6000000.00361
6000000.00023
6000000.00324
5999999.99854
5999999.99927
5999999.99955
5999999.99758
5999999.99372
6000000.00294
6000000.00157
5999999.99836
5999999.99956
5999999.99853
6000000.00022
5999999.9979
6000000.00133
5999999.99849
6000000.00071
5999999.9993
6000000
6000000.00039
5999999.99814
6000000.00095
6000000.00033
5999999.99985
5999999.99989
5999999.99975
6000000.00019
6000000.00044
5999999.9997
6000000.00004
5999999.99982
6000000.00002
5999999.99981
5999999.99992
5999999.99971
5999999.99928
5999999.99995
6000000
5999999.99981
5999999.99998
6000000.00011
5999999.99995
5999999.99854
6000000.00258
5999999.99828
5999999.99928
5999999.99894
5999999.99931
6000000.00027
5999999.99991
6000000
5999999.99961
6000000.00173
6000000.00058
6000000.0001
6000000.00029
5999999.99928
5999999.99751
6000000.00274
6000000.00312
5999999.99831
5999999.99314
5999999.99317
6000000.0012
6000000.00686
6000000.00288
6000000.0039
5999999.99663
6000000.00462
5999999.9932
6000000.00115
5999999.99598
6000000.00038
5999999.99995
6000000.00351
5999999.99885
6000000.00208
5999999.99765
6000000.00189
5999999.99959
6000000
6000000.00026
6000000.0004
6000000.00002
5999999.99943
6000000.00335
5999999.99949
5999999.99999
6000000.00002
5999999.99992
5999999.99989
6000000
6000000.00072
5999999.99876
5999999.99871
5999999.99877
5999999.99935
5999999.99992
5999999.99853
5999999.99655
6000000.00193
6000000.00078
6000000.0009
6000000.00244
5999999.9973
5999999.9973
6000000.00759
6000000.00342
6000000.00148
6000000.00288
5999999.99707
5999999.99864
6000000.00114
5999999.99894
6000000.00099
6000000.00024
6000000.00059
6000000.00067
6000000.00267
5999999.99948
5999999.99743
6000000.0007
5999999.9997
5999999.99961
6000000.00461
5999999.99895
5999999.99773
6000000.0031
6000000.00166
6000000.00046
6000000.00109
5999999.9962
5999999.99739
6000000.00483
6000000.0059
6000000.00285
5999999.99636
5999999.99752
6000000.00344
5999999.99999
5999999.99778
5999999.99648
6000000.0046
6000000.00347
5999999.99968
6000000.00215
5999999.99759
6000000.00149
5999999.99948
6000000.00065
6000000.00085
6000000.00049
6000000.00125
5999999.99947
5999999.99907
6000000.00137
6000000.00117
5999999.99398
5999999.99418
6000000.00354
6000000.00059
5999999.99917
5999999.99835
6000000.00329
5999999.99702
6000000.00083
6000000.00141
6000000.0031
5999999.99332
6000000.00284
6000000.00165
6000000.00499
5999999.99556
5999999.99779
6000000.00158
6000000.00041
5999999.99478
5999999.99754
6000000.00539
6000000.00607
5999999.99956
6000000.00176
6000000.00126
6000000.00426
5999999.9972
6000000.00156
6000000.00184
5999999.99508
6000000.00328
6000000.00358
6000000.00559
6000000.00871
5999999.99533
5999999.99798
6000000.00387
6000000.0067
5999999.99444
5999999.99489
6000000.00273
5999999.99806
6000000.00001
6000000.00069
5999999.99584
6000000.00173
5999999.99677
6000000.00052
5999999.99568
5999999.99419
6000000.00422
6000000.00325
5999999.99835
6000000.00318
6000000.00124
5999999.99996
5999999.99986
5999999.99829
5999999.9968
6000000.00387
6000000.00759
5999999.99647
5999999.99851
5999999.9923
6000000.0048
6000000.00611
5999999.99554
5999999.99728
5999999.99579
5999999.99714
5999999.99639
6000000.00122
5999999.99902
6000000.00216
5999999.99876
5999999.99985
6000000.0036
5999999.99392
5999999.99462
5999999.99611
6000000.00714
6000000.00034
5999999.99832
6000000.00105
6000000.00014
6000000.00282
5999999.99902
6000000.00159
6000000.00606
5999999.99624
5999999.99417
5999999.99215
6000000.00315
6000000.00287
5999999.9921
5999999.99626
5999999.99684
6000000.00138
5999999.99869
5999999.99271
6000000.00394
6000000.0049
5999999.99989
6000000.00091
5999999.9999
6000000.00074
6000000.00097
6000000.00062
6000000.00008
5999999.99999
5999999.99991
5999999.99988
6000000.00015
6000000.00044
5999999.9981
6000000.00234
6000000.00704
5999999.99986
6000000.00108
6000000.00311
5999999.99924
6000000.00382
6000000.00129
5999999.99992
5999999.99988
5999999.99987
6000000.00151
5999999.99718
5999999.99704
6000000.00109
5999999.9958
6000000.00119
5999999.99851
5999999.99939
5999999.99906
5999999.99981
5999999.99973
6000000.00004
6000000.0005
5999999.99787
6000000.00365
5999999.99852
5999999.99891
5999999.9999
5999999.99791
6000000.00115
6000000.00127
6000000.00014
6000000.0005
5999999.99884
6000000.00404
5999999.99982
5999999.99999
6000000.00055
5999999.99966
6000000.00047
5999999.99743
6000000.00635
6000000.0037
5999999.99467
5999999.99835
6000000.00227
5999999.99806
6000000.00377
5999999.99874
5999999.99981
6000000.00008
5999999.99939
6000000.00036
5999999.99903
6000000.00071
5999999.99679
6000000.00196
6000000.0011
6000000.00113
5999999.99956
6000000.00008
5999999.99676
6000000.00697
6000000.00372
5999999.99383
6000000.00152
6000000.00317
6000000.00477
5999999.99571
5999999.99535
6000000.00457
5999999.9985
5999999.99932
6000000.0004
5999999.99998
5999999.99992
5999999.99996
6000000.00002
5999999.99989
5999999.99993
5999999.99988
6000000.00031
5999999.99828
6000000.00293
5999999.9971
5999999.99966
6000000.00133
5999999.9926
6000000.00514
6000000.00496
6000000.00168
5999999.99933
6000000.00305
6000000.00562
5999999.99629
5999999.99497
6000000.00282
5999999.99905
6000000.00331
6000000.00539
6000000.00057
6000000.00594
6000000.0001
5999999.99976
6000000.00084
6000000.00065
5999999.99984
6000000.00007
6000000.00371
5999999.9977
6000000.0007
6000000.00176
6000000.00322
6000000.00308
5999999.99448
6000000.00222
6000000.00071
6000000.00112
5999999.99906
6000000.00492
6000000.00378
5999999.99725
6000000.00317
6000000.00033
5999999.9992
6000000.00063
5999999.99949
6000000.00241
5999999.99329
6000000.00259
6000000.00146
6000000.00028
5999999.99864
6000000.00016
6000000.00147
5999999.99969
6000000
6000000.00002
6000000
6000000.00002
5999999.99989
6000000.00001
5999999.99979
5999999.9999
6000000.00037
5999999.99885
6000000.00195
5999999.99952
5999999.99979
5999999.99965
6000000.00035
5999999.99811
6000000.00096
6000000.00056
6000000.00073
5999999.99722
5999999.99787
6000000.00111
6000000.00211
5999999.99826
6000000.00126
5999999.99804
6000000.00309
6000000.00285
6000000.00054
6000000.00033
5999999.99965
5999999.99899
6000000.00226
5999999.99525
6000000.00661
5999999.99683
5999999.99438
6000000.00362
6000000.00421
6000000.00528
5999999.99994
6000000.00026
5999999.99418
5999999.99544
5999999.99509
6000000.002
5999999.99773
6000000.00515
5999999.99911
5999999.99722
6000000.00074
5999999.99707
6000000.00222
5999999.99806
6000000.00538
5999999.99266
5999999.99497
6000000.00403
5999999.99457
5999999.99667
5999999.99806
6000000.00213
6000000.00189
6000000.00125
6000000.00003
6000000.00105
6000000.00084
6000000.00272
5999999.99643
6000000.00228
6000000.00146
5999999.99971
5999999.99817
6000000.00002
6000000.00012
5999999.99842
5999999.99882
6000000.00157
5999999.99988
6000000.0017
6000000.00233
5999999.99704
5999999.99902
6000000.00495
5999999.99913
5999999.99969
5999999.99982
6000000
6000000.00001
6000000.00014
6000000.00002
5999999.99978
6000000.00058
6000000.00005
5999999.99655
6000000.00112
5999999.9994
5999999.99988
5999999.99998
6000000.00046
5999999.99787
6000000.00385
6000000.00203
5999999.99514
6000000.00667
5999999.99388
5999999.99303
6000000.00267
6000000.00535
5999999.99151
5999999.99738
5999999.99692
5999999.99922
6000000.0013
5999999.99791
6000000.00138
5999999.99587
5999999.99685
6000000.00074
5999999.99713
6000000.00377
5999999.9979
6000000.00165
6000000.00303
5999999.99538
5999999.99477
5999999.99382
5999999.99927
6000000.0049
6000000.00232
5999999.99605
5999999.99304
6000000.00409
6000000.00285
5999999.9933
5999999.99919
6000000.00582
6000000.00457
5999999.99791
5999999.99756
6000000.00492
5999999.99967
6000000.00002
6000000.00001
5999999.99977
6000000.00105
6000000.00155
5999999.99843
5999999.998
5999999.9984
6000000.00063
6000000.0019
5999999.99942
6000000.00075
5999999.99822
5999999.99765
6000000.00159
6000000.00065
6000000.00035
6000000.00002
6000000.00005
5999999.99991
5999999.99989
6000000.00049
5999999.99891
5999999.99878
6000000.00017
6000000.00248
5999999.9979
5999999.99986
6000000.00016
5999999.99413
6000000.00038
6000000.00074
6000000.00494
6000000.00184
5999999.99923
6000000.00158
6000000.0005
5999999.99784
6000000.00315
5999999.99621
6000000.00331
6000000.00057
6000000.00515
5999999.99902
5999999.99972
6000000.00593
6000000.00237
6000000.004
6000000.00221
5999999.99622
5999999.99864
6000000.00332
5999999.99939
5999999.99762
5999999.9969
6000000.00288
5999999.99781
5999999.99878
5999999.99664
6000000.00027
6000000.00234
5999999.99822
5999999.9983
5999999.99883
5999999.99978
5999999.99987
6000000.0017
6000000.00069
6000000.00082
5999999.99891
6000000.00192
6000000.00159
5999999.99845
5999999.99977
6000000.00024
6000000.00002
6000000.00012
5999999.9999
6000000.00123
6000000.00118
5999999.99789
6000000.00314
6000000.00214
5999999.99612
6000000.00541
5999999.99468
5999999.99833
6000000.00262
6000000.00657
6000000.00302
6000000.0028
6000000.00183
5999999.99244
5999999.99709
5999999.99869
5999999.99899
6000000.00423
6000000.00477
5999999.99337
5999999.997
5999999.99476
6000000.00592
6000000.00268
6000000.00314
5999999.99859
6000000.00103
6000000.00075
6000000.00208
5999999.99956
5999999.99907
5999999.99979
6000000.00003
5999999.99988
6000000.00092
5999999.99917
6000000.00129
5999999.99986
6000000.00015
5999999.99859
5999999.99568
6000000.00353
6000000.00126
5999999.99598
5999999.9945
6000000.00574
5999999.99795
5999999.99559
6000000.00169
6000000.00635
5999999.99522
6000000.0043
5999999.99874
5999999.9975
6000000.00624
5999999.99914
6000000.00015
5999999.99996
6000000
6000000.00007
6000000.00001
6000000.00007
6000000.00002
6000000.00007
6000000.0002
6000000.00025
6000000.00004
6000000.00019
5999999.99921
6000000.00123
6000000.00152
5999999.99452
6000000.00329
6000000.00509
5999999.99868
6000000.00182
6000000.00268
6000000.00236
5999999.99898
6000000.00023
5999999.99388
6000000.00134
5999999.99952
6000000.00129
6000000.00323
5999999.99899
5999999.99879
5999999.99941
5999999.99874
6000000.0003
5999999.99838
6000000.00123
6000000.00179
5999999.99821
5999999.99944
5999999.99864
6000000.00155
5999999.99962
5999999.99999
5999999.99965
5999999.99924
6000000.00093
5999999.99904
5999999.99805
6000000.00381
5999999.99609
6000000.00149
5999999.9988
5999999.99928
5999999.99991
5999999.99919
6000000.00202
5999999.99544
6000000.00197
5999999.99936
5999999.99913
6000000.00004
5999999.99942
5999999.99987
5999999.99948
6000000.00124
5999999.99835
5999999.9995
5999999.99995
5999999.99993
5999999.99992
5999999.99998
6000000.00009
5999999.99993
5999999.99967
6000000
5999999.99986
5999999.99989
6000000.00002
5999999.99925
6000000.00212
5999999.99945
6000000.00017
6000000.00016
6000000.00152
5999999.99795
6000000.00153
5999999.99598
6000000.00271
6000000.00176
6000000.00202
6000000.00237
5999999.99693
5999999.99903
5999999.9979
6000000.0027
5999999.99888
5999999.99808
6000000.0019
5999999.99809
5999999.99905
5999999.99957
5999999.99998
6000000.00454
6000000.00175
6000000.00333
5999999.99913
6000000.00034
6000000.0026
5999999.99501
6000000.0007
5999999.99645
6000000.00561
6000000.002
5999999.99401
5999999.99549
5999999.995
6000000.00604
6000000.00187
6000000.0059
5999999.99702
5999999.99808
6000000.00075
5999999.99491
5999999.99385
5999999.99691
5999999.99818
6000000.00248
5999999.99461
5999999.99675
5999999.9935
6000000.00068
5999999.99506
5999999.99813
5999999.99654
5999999.99643
5999999.99479
5999999.99472
6000000.00429
6000000.00152
6000000.00145
5999999.99355
6000000.00256
5999999.99951
6000000.00028
6000000.00138
5999999.99846
6000000.00038
5999999.99572
6000000.00334
5999999.9949
5999999.99496
6000000.0027
5999999.9947
5999999.99518
6000000.00597
5999999.99535
5999999.99382
6000000.00111
6000000.00197
5999999.99962
6000000.00152
6000000.00064
6000000.00044
5999999.99997
6000000.00071
5999999.99952
6000000.00068
5999999.99883
6000000.0004
6000000.00026
5999999.99992
5999999.99993
6000000.00021
6000000.00185
5999999.99997
5999999.9996
6000000.00132
6000000.00017
5999999.99934
5999999.99958
5999999.99946
5999999.99909
6000000.0003
6000000.00006
6000000.0004
5999999.99947
5999999.99896
6000000.0007
6000000.00231
5999999.99805
6000000.0009
6000000.00323
6000000.00279
5999999.99619
5999999.99731
6000000.00357
5999999.99926
6000000.00161
6000000.00053
5999999.9964
6000000.00312
6000000.0027
5999999.99998
5999999.99873
6000000.00005
5999999.99834
6000000.00384
6000000.00026
6000000.00117
5999999.99868
5999999.99733
6000000.00677
6000000.00609
5999999.99323
5999999.99748
6000000.00181
6000000.00141
5999999.99883
6000000.00126
5999999.99995
6000000.00346
5999999.99917
6000000.00268
5999999.9997
5999999.99947
5999999.99989
6000000.00004
5999999.99997
5999999.99998
5999999.99998
6000000.00001
6000000.00004
6000000.00014
6000000
6000000
6000000.00001
5999999.99999
6000000.00019
6000000
6000000.00001
5999999.99993
5999999.99996
6000000.00021
6000000.0003
5999999.99995
6000000.00014
5999999.99999
6000000.00001
5999999.99958
6000000.0003
5999999.99991
6000000.00036
5999999.99932
5999999.99921
5999999.99927
6000000.00069
5999999.99959
6000000.00308
5999999.99935
5999999.99968
5999999.99958
6000000.00018
6000000.00006
6000000.00013
5999999.9999
6000000.00001
6000000
6000000.00019
5999999.99895
6000000.00062
5999999.99885
6000000.00382
5999999.99936
5999999.99878
6000000.00149
5999999.99887
6000000.00406
6000000.00363
5999999.9985
5999999.99982
6000000.00623
6000000.00087
6000000.00069
6000000.00104
5999999.99968
6000000.00002
6000000.00007
6000000.00026
6000000.00008
6000000.00007
6000000.00038
5999999.99891
6000000.00136
6000000.00087
6000000.00057
6000000.00038
5999999.99912
6000000.00007
5999999.99992
6000000.00001
6000000.00012
6000000.00104
5999999.99903
5999999.99701
6000000.00229
5999999.99788
6000000.00224
5999999.9961
5999999.99904
5999999.99964
5999999.99672
5999999.9998
6000000.00445
5999999.99464
5999999.99358
6000000.00231
5999999.99301
5999999.99389
6000000.00096
5999999.99723
5999999.9984
5999999.99557
6000000.00245
6000000.00246
5999999.99655
6000000.00411
5999999.99793
5999999.99752
6000000.00254
6000000.00288
5999999.99949
5999999.99929
5999999.99961
6000000.0002
5999999.99976
5999999.99919
6000000.00197
5999999.99945
6000000.00215
5999999.99858
5999999.99806
6000000.00022
5999999.99886
5999999.9994
5999999.9982
5999999.99848
5999999.99858
5999999.99981
5999999.99852
6000000.00358
5999999.99946
5999999.99756
5999999.99981
5999999.99999
5999999.99996
5999999.99983
5999999.99983
6000000.00022
5999999.99998
5999999.99996
6000000.00014
6000000.00012
5999999.99998
6000000.00007
5999999.99998
6000000.00018
6000000.00087
6000000.00048
5999999.99755
5999999.9977
6000000.00141
6000000.00025
5999999.99998
5999999.99998
6000000.00003
5999999.99989
5999999.99965
6000000.00013
5999999.99993
5999999.999
6000000.00071
5999999.99977
6000000.00157
5999999.99885
6000000.00028
6000000.00196
5999999.99945
6000000.00036
5999999.99924
5999999.99996
5999999.99991
6000000
5999999.99983
5999999.99989
6000000.00006
5999999.99924
5999999.99833
6000000.00013
5999999.99911
6000000.00235
5999999.99781
6000000.00131
6000000.0007
5999999.99985
6000000.00044
6000000.00146
5999999.99898
5999999.99621
6000000.00399
6000000.00018
6000000.00011
6000000.0008
6000000.00212
6000000.00032
5999999.99704
6000000.00455
6000000.00294
5999999.99963
5999999.9979
6000000.00211
6000000.00183
5999999.99891
6000000.00538
6000000.00032
6000000.00245
5999999.99695
5999999.99747
6000000.00127
5999999.99896
5999999.99967
5999999.99673
6000000.0039
6000000.00116
5999999.99856
6000000.0003
5999999.99838
6000000.00369
5999999.99829
6000000.00181
5999999.99416
6000000.0067
6000000.00513
5999999.9983
6000000.00123
5999999.99243
5999999.9922
6000000.00322
6000000.00239
6000000.00421
5999999.99764
5999999.99502
6000000.00421
5999999.99593
5999999.99887
5999999.99887
5999999.99787
6000000.00129
5999999.99887
6000000.00035
5999999.99987
5999999.99944
6000000.00045
5999999.99756
6000000.00236
5999999.99952
5999999.9987
6000000.0029
5999999.99781
6000000.00143
5999999.99596
6000000.00043
5999999.99999
5999999.99964
5999999.99845
5999999.99846
6000000.0016
6000000.00194
5999999.99911
6000000.00671
6000000.00256
5999999.99382
6000000.00317
5999999.99844
6000000.00685
6000000.00565
5999999.99743
5999999.9958
5999999.9988
6000000.00644
6000000.00195
5999999.99693
5999999.99547
5999999.99532
6000000.00288
5999999.99694
5999999.99458
5999999.99797
5999999.99487
6000000.00402
5999999.99733
5999999.9962
5999999.9986
6000000.00178
5999999.99722
5999999.9972
6000000.00124
6000000.00135
5999999.99605
5999999.99764
5999999.99539
5999999.99542
5999999.99724
5999999.99877
6000000.00099
5999999.99257
5999999.99387
6000000.002
6000000.00054
5999999.99512
5999999.99543
5999999.99499
5999999.99356
6000000.00435
5999999.99672
5999999.99242
6000000.0003
5999999.99585
6000000.00254
6000000.00486
5999999.9926
5999999.9946
5999999.99767
6000000.00557
6000000.00072
5999999.99748
6000000.00304
6000000.00616
5999999.99978
6000000.00599
5999999.99629
5999999.99361
6000000.00361
6000000.00071
5999999.99952
5999999.99462
5999999.99638
6000000.00262
5999999.99618
5999999.99845
6000000.00205
5999999.99889
6000000.00302
6000000.0071
6000000.00316
5999999.99839
5999999.99525
5999999.99727
6000000.00571
6000000.00224
5999999.99566
5999999.99729
6000000.00083
6000000.00621
6000000.00094
5999999.99894
5999999.99973
6000000.0015
5999999.99863
5999999.99906
6000000.00338
6000000.00175
5999999.99697
6000000.00261
5999999.99673
5999999.99961
5999999.99734
6000000.00044
6000000.00237
5999999.99423
5999999.99999
6000000.001
5999999.99418
5999999.99754
6000000.00293
5999999.9981
5999999.99812
6000000.00255
5999999.99843
5999999.99659
5999999.99567
5999999.99786
5999999.99592
5999999.99932
5999999.99794
6000000.00675
5999999.9977
6000000.00027
6000000.00528
5999999.99863
6000000.00135
5999999.99998
6000000.00835
5999999.9972
6000000.0009
6000000.00631
6000000.0068
5999999.99901
5999999.99816
6000000.00992
6000000.00776
6000000.00607
5999999.99805
5999999.99812
6000000.00797
6000000.00826
6000000.00184
6000000.00673
6000000.00231
5999999.99515
6000000.00683
6000000.00775
6000000.00012
5999999.99731
6000000.00743
6000000.00255
5999999.99409
6000000.00244
6000000.00219
6000000.00907
6000000.0076
5999999.99769
6000000.00235
6000000.00707
5999999.99613
5999999.99958
6000000.00645
6000000.0091
6000000.00061
6000000.00635
6000000.00546
6000000.00485
5999999.99803
6000000.00129
6000000.00838
6000000.00952
6000000.01007
6000000.00298
6000000.00302
6000000.00645
6000000.01023
5999999.99972
6000000.00293
6000000.00571
5999999.99665
6000000.0055
6000000.00518
6000000.0099
6000000.0042
6000000.00736
6000000.00565
5999999.99365
6000000.00687
6000000.00202
5999999.99866
6000000.00876
5999999.99876
5999999.99979
5999999.99858
6000000.00036
5999999.99827
5999999.9996
5999999.999
5999999.99949
5999999.99927
5999999.99946
5999999.99719
5999999.99774
5999999.99952
5999999.99813
6000000.00026
5999999.99828
5999999.99866
5999999.99829
6000000.00013
5999999.99787
5999999.99748
5999999.99865
5999999.99964
5999999.99849
5999999.99868
5999999.99961
5999999.99752
5999999.99841
5999999.99926
5999999.99583
5999999.99848
6000000.00018
5999999.99919
5999999.99676
5999999.99937
5999999.99741
5999999.99996
5999999.99886
5999999.99867
5999999.99679
5999999.99893
6000000.00007
5999999.9978
5999999.99946
5999999.9996
5999999.99874
5999999.9988
5999999.99912
5999999.99663
5999999.99692
5999999.99943
5999999.99992
6000000.00016
6000000.00025
5999999.99834
5999999.99894
5999999.99787
5999999.99831
5999999.99825
5999999.99872
5999999.99957
6000000.00036
6000000.00213
5999999.99835
5999999.9994
5999999.99942
5999999.99991
5999999.99967
6000000.00067
5999999.99987
5999999.99952
6000000.00034
5999999.9998
5999999.99976
5999999.99981
5999999.99981
6000000.00053
6000000.00011
5999999.99977
5999999.99964
6000000.00024
6000000.00031
5999999.99982
6000000.00046
5999999.99989
6000000.00034
5999999.99991
5999999.99991
6000000.00027
6000000.00003
6000000.00037
5999999.99976
6000000.00004
5999999.99958
6000000.00032
6000000.00045
6000000.0002
6000000.00048
5999999.99991
6000000.00061
6000000.00052
5999999.99971
6000000.00041
5999999.99994
6000000.00034
6000000.00012
5999999.99961
6000000.00077
6000000.00023
6000000.00047
6000000.00028
5999999.99947
5999999.99986
5999999.9998
6000000.00013
6000000.00003
6000000.00032
6000000.0004
5999999.99976
6000000.00006
6000000.00023
6000000.00013
6000000.00025
6000000.00016
6000000.00013
6000000.00041
5999999.99977
6000000.00061
6000000.00077
6000000.00104
6000000.001
6000000.00109
6000000.00062
6000000.00101
6000000.00087
6000000.00122
6000000.00086
6000000.00081
6000000.00087
6000000.00087
6000000.00082
6000000.00083
6000000.00091
6000000.001
6000000.00082
6000000.00098
6000000.00111
6000000.0009
6000000.00114
6000000.00121
6000000.00075
6000000.00099
6000000.00097
6000000.00092
6000000.00077
6000000.00061
6000000.00102
6000000.00087
6000000.00087
6000000.00086
6000000.00089
6000000.00117
6000000.00074
6000000.00096
6000000.00074
6000000.00087
6000000.00069
6000000.00086
6000000.00101
6000000.0011
6000000.00101
6000000.00092
6000000.00095
6000000.00094
6000000.00077
6000000.00103
6000000.00121
6000000.00127
6000000.00072
6000000.0009
6000000.00085
6000000.00096
6000000.00097
6000000.00097
6000000.00098
6000000.00106
6000000.00103
6000000.00105
6000000.00092
6000000.00123
6000000.00135
6000000.00087
5999999.99898
5999999.99867
5999999.99878
5999999.99901
5999999.99871
5999999.99913
5999999.9988
5999999.99877
5999999.99868
5999999.99869
5999999.99887
5999999.99901
5999999.99902
5999999.99882
5999999.99864
5999999.99872
5999999.99879
5999999.99899
5999999.99887
5999999.99901
5999999.99879
5999999.99878
5999999.99914
5999999.99897
5999999.99869
5999999.99889
5999999.99933
5999999.99875
5999999.99895
5999999.99907
5999999.99902
5999999.99938
5999999.99905
5999999.99908
5999999.99888
5999999.99884
5999999.99909
5999999.99865
5999999.99857
5999999.99871
5999999.99905
5999999.99907
5999999.99891
5999999.99903
5999999.99895
5999999.99897
5999999.99921
5999999.999
5999999.99879
5999999.99894
5999999.99886
5999999.99866
5999999.99878
5999999.99861
5999999.99894
5999999.99887
5999999.99896
5999999.999
5999999.99883
5999999.99883
5999999.99877
5999999.99905
5999999.9988
5999999.99886
5999999.99942
5999999.99934
5999999.99949
5999999.9998
5999999.99976