/*--------------------------------*- C++ -*----------------------------------*\
  =========                 |
  \\      /  F ield         | OpenFOAM: The Open Source CFD Toolbox
   \\    /   O peration     | Website:  https://openfoam.org
    \\  /    A nd           | Version:  6
     \\/     M anipulation  |
\*---------------------------------------------------------------------------*/
FoamFile
{
    version     2.0;
    format      ascii;
    class       volVectorField;
    location    "5e-05";
    object      U;
}
// * * * * * * * * * * * * * * * * * * * * * * * * * * * * * * * * * * * * * //

dimensions      [0 1 -1 0 0 0 0];

internalField   nonuniform List<vector> 
8192
(
(-88.3219999999 0 -2.94329710947e-10)
(-88.3219999996 0 -1.00654016928e-10)
(-88.3220000002 0 -7.39665370794e-11)
(-88.3220000004 0 -3.25000187386e-10)
(-88.3219999994 0 -6.78556269315e-11)
(-88.3219999996 0 -9.94349550317e-12)
(-88.3220000003 0 -3.82401386537e-12)
(-88.3219999999 0 1.50609996854e-10)
(-88.322 0 -2.9577119931e-10)
(-88.322 0 -6.04870178433e-10)
(-88.3219999999 0 -7.72961636532e-10)
(-88.322 0 3.89865727276e-10)
(-88.3220000002 0 6.87441060469e-10)
(-88.3220000001 0 -8.15717542281e-10)
(-88.3219999998 0 -6.45899375711e-10)
(-88.3219999998 0 3.9434644483e-10)
(-88.3219999997 0 3.65065360586e-10)
(-88.3219999998 0 7.49815071163e-10)
(-88.3220000003 0 -4.36909974008e-10)
(-88.3219999999 0 -6.26849362835e-10)
(-88.3219999996 0 2.63350256731e-10)
(-88.3220000004 0 4.04979270428e-10)
(-88.3220000004 0 -6.81006160621e-10)
(-88.3219999998 0 -6.07235565001e-10)
(-88.322 0 1.99582326367e-10)
(-88.3219999998 0 2.12075560399e-10)
(-88.3219999998 0 2.69063892045e-10)
(-88.3219999999 0 2.2264911104e-10)
(-88.3220000002 0 3.50770803196e-10)
(-88.3220000002 0 -1.85691999499e-10)
(-88.322 0 2.41739589465e-10)
(-88.3219999995 0 -8.52433793493e-11)
(-88.3219999988 0 1.43209716649e-10)
(-88.3220000021 0 5.88936757016e-10)
(-88.322000003 0 -9.42022770519e-10)
(-88.3219999986 0 -6.71260288769e-10)
(-88.3219999994 0 -6.72357097762e-12)
(-88.3219999996 0 -5.98333737948e-10)
(-88.3219999985 0 1.67037528891e-10)
(-88.3220000007 0 2.01753693654e-10)
(-88.3220000001 0 -8.38494687117e-11)
(-88.3219999997 0 8.37823538529e-11)
(-88.3220000002 0 -1.72684007192e-11)
(-88.322 0 -1.6039237631e-11)
(-88.322 0 -6.47521896646e-11)
(-88.322 0 -4.43916704601e-11)
(-88.322 0 -2.37373380164e-11)
(-88.3219999999 0 -2.05733210706e-11)
(-88.3220000001 0 3.69218339137e-11)
(-88.3219999998 0 -1.14042066846e-10)
(-88.3219999999 0 1.60275070707e-10)
(-88.3220000007 0 -8.68669410684e-11)
(-88.3219999993 0 -2.3536299719e-10)
(-88.3219999992 0 3.93744168324e-10)
(-88.3220000013 0 2.1775692414e-10)
(-88.3220000007 0 -1.98713435347e-10)
(-88.322 0 -2.3950683187e-11)
(-88.3219999998 0 -1.92267690492e-10)
(-88.3220000002 0 -5.16020000517e-11)
(-88.3219999991 0 -3.40759121467e-10)
(-88.3219999982 0 3.69978104233e-10)
(-88.3219999998 0 4.18229727485e-10)
(-88.322000001 0 3.73945078233e-10)
(-88.3220000014 0 -6.6374209543e-11)
(-88.3220000001 0 -3.83938431411e-10)
(-88.3219999998 0 -9.97589671206e-11)
(-88.3220000002 0 1.62169961571e-10)
(-88.3219999996 0 2.49209977973e-11)
(-88.3219999999 0 3.10570641306e-10)
(-88.3220000002 0 -1.2600253489e-10)
(-88.3219999994 0 6.72865635147e-11)
(-88.3220000006 0 2.31892622071e-12)
(-88.3220000014 0 -1.11449574937e-11)
(-88.3220000009 0 -7.14351434047e-11)
(-88.3219999981 0 7.92219908908e-11)
(-88.321999997 0 -2.7722558344e-10)
(-88.3220000022 0 -2.78753097309e-11)
(-88.3220000026 0 -2.03678955546e-10)
(-88.3219999978 0 -3.46546856872e-10)
(-88.3219999981 0 3.49184509588e-10)
(-88.3219999995 0 2.67724962153e-10)
(-88.3220000018 0 1.5209896179e-10)
(-88.3220000025 0 -3.71701463291e-10)
(-88.3219999988 0 -2.09881689812e-10)
(-88.3219999983 0 -7.37990369676e-11)
(-88.3220000015 0 -3.87606354055e-11)
(-88.3220000017 0 2.2831566148e-10)
(-88.3219999985 0 -7.17524222436e-11)
(-88.3219999984 0 4.80689934657e-10)
(-88.322 0 -1.7979180739e-10)
(-88.3220000001 0 3.13778061641e-10)
(-88.3219999999 0 3.15401270033e-10)
(-88.3220000007 0 -1.01941495487e-10)
(-88.322 0 -1.56237128846e-11)
(-88.3219999998 0 9.85468585632e-11)
(-88.3220000005 0 3.56332487976e-11)
(-88.3219999998 0 -2.6859349213e-10)
(-88.3220000003 0 -4.95849109368e-10)
(-88.322 0 6.25701112602e-10)
(-88.3219999994 0 6.9928896595e-10)
(-88.3220000002 0 1.3584380549e-11)
(-88.322 0 3.18597443193e-10)
(-88.322 0 -1.63295177536e-10)
(-88.322 0 -2.61350384827e-10)
(-88.322 0 2.11094039169e-10)
(-88.3220000001 0 -1.13749288558e-10)
(-88.322 0 9.71188648346e-11)
(-88.322 0 -2.3698233122e-10)
(-88.322 0 -4.10165962166e-10)
(-88.322 0 -3.61069399399e-10)
(-88.322 0 -3.50188993575e-10)
(-88.322 0 -4.4884120937e-10)
(-88.322 0 -3.98370172135e-10)
(-88.322 0 -6.56361270406e-11)
(-88.322 0 3.20910533171e-10)
(-88.3220000001 0 -1.06816366554e-10)
(-88.3219999997 0 6.78897077644e-11)
(-88.322 0 -1.23414200098e-10)
(-88.3220000001 0 -3.21344831658e-10)
(-88.3219999999 0 4.23538354677e-10)
(-88.322 0 -2.0509035432e-10)
(-88.3220000002 0 -1.40350914905e-10)
(-88.322 0 -3.79278457773e-10)
(-88.3219999999 0 1.00727993269e-09)
(-88.322 0 3.75217818692e-10)
(-88.3220000001 0 -8.42945240919e-10)
(-88.3220000002 0 -1.1709928238e-09)
(-88.322 0 -4.67361486553e-10)
(-88.3219999992 0 9.53364463066e-11)
(-88.3219999986 0 1.3546430351e-10)
(-88.322 0 -4.04715034541e-11)
(-88.3220000001 0 2.29886920607e-10)
(-88.3219999998 0 -1.95887356738e-10)
(-88.3220000001 0 1.74604600482e-10)
(-88.322 0 -5.65912559189e-11)
(-88.3220000001 0 -1.38952531743e-10)
(-88.3220000002 0 2.60873957469e-10)
(-88.3219999998 0 5.60159656148e-10)
(-88.3220000003 0 7.34652638499e-10)
(-88.3220000002 0 -2.54154020721e-10)
(-88.322 0 -5.72982718563e-10)
(-88.3220000006 0 5.58625659409e-10)
(-88.3219999987 0 5.79071850705e-10)
(-88.3219999986 0 -4.20883324218e-10)
(-88.3220000002 0 -3.69654577863e-10)
(-88.3220000011 0 -6.62444452447e-10)
(-88.322000001 0 4.73299430359e-10)
(-88.3219999994 0 5.77214809457e-10)
(-88.3219999992 0 -2.1884058747e-10)
(-88.3219999998 0 -2.06667967381e-10)
(-88.3220000004 0 6.39752701083e-10)
(-88.3219999993 0 6.03537573888e-10)
(-88.3220000002 0 -1.04798536902e-10)
(-88.3220000001 0 -1.97295853324e-10)
(-88.3219999989 0 -1.06826077629e-10)
(-88.3220000008 0 1.30099191561e-10)
(-88.3220000008 0 -1.26200731236e-10)
(-88.3219999998 0 8.18072374973e-11)
(-88.3219999999 0 8.16192563869e-11)
(-88.3220000004 0 5.37915854484e-12)
(-88.322 0 -5.15615433317e-10)
(-88.322 0 4.91646079428e-10)
(-88.3220000002 0 6.96461889378e-10)
(-88.322 0 -4.83680074297e-10)
(-88.3220000003 0 -7.74370598136e-10)
(-88.322 0 9.00285163711e-10)
(-88.3219999997 0 4.62123111283e-10)
(-88.3219999999 0 -3.68082033606e-10)
(-88.3219999999 0 -4.90587440569e-10)
(-88.322 0 2.32343215271e-10)
(-88.3220000005 0 -3.10212834998e-10)
(-88.3220000011 0 -7.60638311827e-11)
(-88.3220000003 0 -3.95206477559e-10)
(-88.3219999998 0 6.48998691335e-11)
(-88.3220000001 0 -6.77472810636e-10)
(-88.3219999999 0 -6.12604035765e-10)
(-88.3219999993 0 5.856227742e-10)
(-88.3219999984 0 2.89218552184e-11)
(-88.322 0 -4.74987780155e-10)
(-88.3220000012 0 1.96822474079e-10)
(-88.3219999994 0 -4.83031175224e-10)
(-88.3219999999 0 4.55257038038e-10)
(-88.322 0 1.0768985308e-10)
(-88.3220000005 0 -3.73667836441e-10)
(-88.3220000012 0 -4.28691270072e-10)
(-88.3220000003 0 -4.551530545e-10)
(-88.321999998 0 -1.73407856791e-10)
(-88.3219999977 0 -2.31078687707e-10)
(-88.322000002 0 -1.75363989574e-10)
(-88.322000003 0 9.2307176488e-11)
(-88.3220000002 0 6.86490692774e-11)
(-88.3219999999 0 9.46252662816e-11)
(-88.322 0 6.96185946543e-10)
(-88.3220000001 0 2.09907311232e-10)
(-88.322 0 -9.50127179913e-11)
(-88.3219999999 0 1.84784853215e-10)
(-88.322 0 -2.28869694933e-10)
(-88.322 0 5.14717643845e-11)
(-88.322 0 1.90464603133e-11)
(-88.322 0 4.12640689383e-11)
(-88.322 0 4.58299768126e-11)
(-88.322 0 1.0758557653e-10)
(-88.3219999997 0 -4.39631701073e-11)
(-88.3219999997 0 1.81423566948e-10)
(-88.3220000006 0 -2.30656481933e-11)
(-88.3220000002 0 4.76506222891e-10)
(-88.3219999997 0 3.85985285297e-10)
(-88.322 0 -3.44364759749e-10)
(-88.322 0 -2.5561142422e-10)
(-88.322 0 -3.36399805377e-10)
(-88.322 0 5.73150250666e-10)
(-88.322 0 4.96022303731e-10)
(-88.322 0 -5.56423962674e-10)
(-88.3219999998 0 -5.00783342431e-10)
(-88.322 0 3.43989151044e-10)
(-88.322 0 5.69915331068e-10)
(-88.322 0 -2.4078435292e-10)
(-88.322 0 6.22292332642e-10)
(-88.3219999994 0 -1.97414419989e-10)
(-88.3219999999 0 7.11626678079e-11)
(-88.3220000007 0 -1.02374905247e-10)
(-88.3219999996 0 -3.18485542501e-10)
(-88.3219999998 0 1.2669972587e-10)
(-88.3220000017 0 -1.02493009149e-10)
(-88.3219999988 0 6.835070541e-12)
(-88.321999998 0 -1.05531191439e-10)
(-88.3220000019 0 5.04956238822e-11)
(-88.3220000024 0 1.03281116694e-10)
(-88.3219999975 0 -8.67111075978e-11)
(-88.3219999976 0 4.01005033134e-10)
(-88.3220000024 0 -4.18363211406e-11)
(-88.3220000018 0 4.68208229521e-11)
(-88.3219999988 0 -1.01651854514e-10)
(-88.3219999998 0 1.70869473553e-12)
(-88.3220000006 0 -1.1721204584e-10)
(-88.3220000002 0 2.39113496137e-10)
(-88.3219999997 0 4.41935060029e-10)
(-88.3220000006 0 3.59724356052e-10)
(-88.3220000013 0 3.8290085238e-10)
(-88.3219999975 0 3.03734633855e-10)
(-88.3219999989 0 5.70472035294e-10)
(-88.322000002 0 1.9538119263e-10)
(-88.3219999998 0 -3.93456214663e-10)
(-88.3220000002 0 1.09146174297e-10)
(-88.3219999991 0 -2.45249304857e-10)
(-88.3219999989 0 2.30095318074e-10)
(-88.3220000017 0 6.33790178193e-10)
(-88.3220000009 0 -5.87093651631e-10)
(-88.3220000001 0 -2.19015478178e-10)
(-88.3219999996 0 4.56760568597e-10)
(-88.3219999996 0 3.35122310858e-11)
(-88.3219999998 0 -5.35501565052e-10)
(-88.3219999994 0 -1.18503884356e-09)
(-88.3219999997 0 8.81817310776e-10)
(-88.3220000001 0 1.0885373809e-09)
(-88.322 0 8.50880391854e-10)
(-88.3220000005 0 -3.30251005244e-10)
(-88.3220000001 0 -1.62075386404e-10)
(-88.322 0 3.0632965589e-10)
(-88.3220000004 0 -4.5859200838e-11)
(-88.322 0 -7.43225281069e-11)
(-88.3219999996 0 -4.76542267957e-12)
(-88.322 0 -1.0345916862e-11)
(-88.322 0 5.10757937084e-11)
(-88.322 0 1.40094546206e-11)
(-88.322 0 -1.22252303926e-11)
(-88.3220000001 0 8.75051138758e-11)
(-88.3220000002 0 -3.19116334497e-10)
(-88.3219999995 0 -3.32131852992e-10)
(-88.3219999998 0 6.34148974004e-11)
(-88.3220000004 0 -3.08960620517e-11)
(-88.322 0 4.12347556168e-11)
(-88.3220000002 0 1.94669754538e-10)
(-88.3219999994 0 1.82426373785e-10)
(-88.3219999993 0 -3.40997313835e-11)
(-88.3220000017 0 -8.33573515758e-12)
(-88.3220000012 0 4.12710745934e-11)
(-88.321999998 0 4.73548461435e-11)
(-88.3219999983 0 1.05141712191e-10)
(-88.3220000005 0 -1.27964694364e-10)
(-88.3220000001 0 1.58386573317e-10)
(-88.322 0 9.6726050293e-12)
(-88.3219999999 0 2.9436456223e-10)
(-88.3220000006 0 2.91537403504e-10)
(-88.3220000015 0 4.11983182029e-10)
(-88.3219999993 0 -4.18090330259e-11)
(-88.3219999994 0 1.47827040102e-10)
(-88.3220000005 0 4.3886116925e-10)
(-88.3220000001 0 -4.06613817072e-11)
(-88.322 0 -5.85025812744e-10)
(-88.3219999998 0 -8.11413903904e-10)
(-88.3220000002 0 2.65697442785e-10)
(-88.3219999997 0 9.75149340458e-10)
(-88.3219999999 0 -1.17276161138e-09)
(-88.3220000004 0 -2.95453945689e-10)
(-88.3219999999 0 1.26289082396e-10)
(-88.322 0 4.23539877604e-10)
(-88.322 0 -1.9258856169e-10)
(-88.322 0 2.5535826369e-10)
(-88.322 0 8.84460743274e-11)
(-88.322 0 3.56787827515e-10)
(-88.3219999999 0 -4.82565929739e-11)
(-88.3220000002 0 6.70026535006e-10)
(-88.3219999997 0 5.19730935715e-10)
(-88.3219999996 0 -5.02428673405e-10)
(-88.3220000004 0 -1.59640114726e-10)
(-88.3220000002 0 3.47779545141e-10)
(-88.3220000009 0 2.78522577737e-11)
(-88.3219999992 0 3.86109387193e-10)
(-88.3219999982 0 -4.92208718038e-10)
(-88.3220000016 0 -9.88812457549e-11)
(-88.3220000021 0 -2.61017368505e-10)
(-88.3219999991 0 2.34345688525e-10)
(-88.3219999998 0 1.09461791512e-10)
(-88.3219999998 0 -2.9694341808e-10)
(-88.3220000001 0 8.57274605934e-10)
(-88.3219999992 0 7.56298723129e-10)
(-88.3219999984 0 4.3840422172e-10)
(-88.3220000002 0 1.73561014848e-10)
(-88.3220000005 0 -4.53562712507e-11)
(-88.3220000002 0 -1.42273080663e-10)
(-88.3219999988 0 -2.67048674095e-10)
(-88.3219999999 0 4.91552955958e-10)
(-88.3220000007 0 6.85155087259e-10)
(-88.3219999999 0 1.95328019922e-11)
(-88.3219999999 0 4.47435179767e-10)
(-88.3219999999 0 3.1778973086e-10)
(-88.322 0 -4.85998423998e-10)
(-88.3220000001 0 2.88762816221e-11)
(-88.3219999998 0 1.01724368167e-10)
(-88.3220000003 0 -6.86760498994e-11)
(-88.3220000004 0 2.42469935571e-10)
(-88.3219999998 0 2.12451538993e-10)
(-88.3219999997 0 -6.27764293881e-10)
(-88.3219999998 0 5.33030791236e-10)
(-88.3219999996 0 4.44708524571e-10)
(-88.3219999997 0 5.93667045106e-10)
(-88.3220000004 0 1.19147981695e-10)
(-88.3220000004 0 -8.07538911626e-10)
(-88.3219999999 0 -2.73075039414e-10)
(-88.3219999997 0 9.7401990773e-10)
(-88.3219999998 0 1.16725252778e-09)
(-88.3220000004 0 -7.08277134303e-10)
(-88.3219999999 0 -6.74088340871e-10)
(-88.3219999998 0 -5.08911110135e-10)
(-88.3219999998 0 -1.4337167193e-10)
(-88.3219999989 0 1.28398381233e-10)
(-88.3219999997 0 -5.42135024635e-10)
(-88.3220000015 0 5.9987539138e-10)
(-88.3220000001 0 8.63945849646e-10)
(-88.3219999989 0 -1.73953133933e-10)
(-88.3220000022 0 -3.77423778588e-10)
(-88.3220000008 0 1.09475273342e-10)
(-88.3219999994 0 2.07999450686e-10)
(-88.3220000002 0 1.28482731944e-10)
(-88.3219999988 0 -1.52320353025e-10)
(-88.3220000004 0 -8.89736610442e-12)
(-88.322 0 -5.69363838668e-11)
(-88.3219999999 0 5.47948338738e-12)
(-88.3220000004 0 8.05379755422e-11)
(-88.3219999995 0 5.76882249407e-11)
(-88.3220000001 0 -3.44140348442e-11)
(-88.322 0 2.86196443766e-11)
(-88.322 0 1.56486360157e-11)
(-88.322 0 1.2046338671e-11)
(-88.322 0 5.52109182025e-12)
(-88.3220000002 0 -1.04720094699e-10)
(-88.3219999998 0 3.37027425431e-10)
(-88.3220000002 0 -2.59223331204e-10)
(-88.3220000003 0 -8.63735915702e-11)
(-88.3219999994 0 -3.05470188107e-11)
(-88.3220000002 0 1.66248102322e-10)
(-88.3220000001 0 3.23412919708e-10)
(-88.3219999998 0 -4.38550251422e-10)
(-88.3220000013 0 -5.29139502927e-10)
(-88.3220000001 0 3.07331736879e-10)
(-88.3219999995 0 4.20815724676e-10)
(-88.3220000007 0 6.01073292157e-11)
(-88.3219999981 0 4.44494330286e-10)
(-88.3219999977 0 -1.0087295153e-10)
(-88.3220000002 0 5.56626392448e-10)
(-88.3220000009 0 -2.43296324349e-10)
(-88.322000001 0 -8.38537392134e-11)
(-88.322000001 0 -2.8062822197e-10)
(-88.3220000005 0 5.47655773986e-10)
(-88.3219999988 0 2.15055552459e-11)
(-88.3219999982 0 -3.6768544642e-10)
(-88.3220000014 0 6.56762578052e-11)
(-88.3220000005 0 4.01252233129e-11)
(-88.3219999989 0 5.8131364876e-11)
(-88.322000002 0 -1.12531751001e-10)
(-88.3220000006 0 6.00208160138e-11)
(-88.3219999989 0 -2.02967587007e-10)
(-88.3220000002 0 -1.73319875331e-10)
(-88.3219999998 0 4.04888066497e-10)
(-88.3219999996 0 -3.85888388523e-10)
(-88.3220000014 0 -3.06848293225e-10)
(-88.3219999992 0 -5.97992408284e-11)
(-88.3219999982 0 -1.24175335309e-10)
(-88.3219999998 0 2.82489513816e-11)
(-88.3220000009 0 -3.15896769696e-10)
(-88.3220000022 0 -1.60482710145e-10)
(-88.322 0 5.46418567622e-11)
(-88.3219999981 0 -6.24975155564e-12)
(-88.3219999984 0 -4.03756764467e-12)
(-88.3220000013 0 -4.6555884081e-11)
(-88.322000002 0 4.05892523384e-12)
(-88.322 0 -6.84393156286e-11)
(-88.321999999 0 -7.76893733192e-11)
(-88.3219999988 0 5.17010502833e-11)
(-88.3220000007 0 -3.8764726911e-10)
(-88.3219999996 0 -3.87741340117e-10)
(-88.3219999987 0 -6.53459987022e-10)
(-88.3220000009 0 3.82725852163e-10)
(-88.322000002 0 -5.10461283776e-10)
(-88.322 0 -3.93928638938e-10)
(-88.3219999989 0 8.86739157919e-10)
(-88.3219999999 0 2.23110053937e-10)
(-88.3220000006 0 -1.18582979231e-10)
(-88.3220000005 0 -5.32088468849e-10)
(-88.3219999995 0 -1.52164989099e-10)
(-88.3219999999 0 6.68184955836e-10)
(-88.3220000001 0 -2.36368586793e-10)
(-88.3219999999 0 -6.74564057442e-11)
(-88.3220000001 0 7.17124666848e-11)
(-88.322 0 1.07192553286e-10)
(-88.3219999999 0 -2.4996084394e-10)
(-88.322 0 8.15808817168e-11)
(-88.322 0 5.10638054408e-11)
(-88.3220000001 0 1.63188447835e-11)
(-88.3219999995 0 -7.87057256963e-12)
(-88.322 0 -5.8155865144e-11)
(-88.3220000005 0 3.41410993096e-11)
(-88.3219999999 0 -5.38423250487e-11)
(-88.3219999997 0 1.51291974366e-10)
(-88.3220000002 0 -6.03849739228e-11)
(-88.3220000004 0 6.14260005496e-11)
(-88.3219999997 0 -6.35625586149e-11)
(-88.3220000001 0 5.25438395387e-11)
(-88.3220000002 0 3.16001805217e-10)
(-88.3219999997 0 -1.34059404833e-11)
(-88.3219999998 0 1.12331478355e-10)
(-88.3220000002 0 4.99672967036e-10)
(-88.3219999999 0 -5.58885986878e-10)
(-88.3219999996 0 -5.63983612051e-10)
(-88.3219999997 0 1.6281555217e-11)
(-88.3220000003 0 2.99958840107e-10)
(-88.3220000006 0 -1.02574778673e-10)
(-88.322 0 1.11149873876e-10)
(-88.3220000006 0 2.58122899298e-10)
(-88.3219999998 0 -4.54900696318e-10)
(-88.3219999998 0 -7.17868940426e-10)
(-88.3219999999 0 1.80590920569e-10)
(-88.3220000002 0 -4.48383105507e-10)
(-88.3219999999 0 -3.64880686163e-10)
(-88.3220000001 0 4.84020268374e-10)
(-88.3220000005 0 -5.53759991308e-11)
(-88.3219999985 0 -1.24279203019e-10)
(-88.3220000008 0 1.05080819081e-10)
(-88.322000002 0 -2.20677922586e-10)
(-88.3219999992 0 -9.87877801557e-11)
(-88.3219999993 0 4.26167271321e-10)
(-88.3219999995 0 -5.31441292567e-10)
(-88.322 0 -3.71010113925e-10)
(-88.322 0 -5.77932213459e-10)
(-88.3219999998 0 3.54497555481e-11)
(-88.3220000002 0 5.13955777889e-10)
(-88.322 0 1.94932115206e-11)
(-88.3219999999 0 -4.03918159129e-10)
(-88.3219999998 0 -7.9328596295e-10)
(-88.3220000005 0 2.47038891277e-10)
(-88.322 0 1.84665369784e-10)
(-88.3219999995 0 2.89554422313e-10)
(-88.3220000004 0 -2.73547861806e-10)
(-88.3219999998 0 -3.27102019692e-10)
(-88.3220000002 0 9.36565003997e-11)
(-88.3219999999 0 -5.59166254765e-10)
(-88.322 0 -5.419668477e-10)
(-88.3220000003 0 -8.77343327785e-11)
(-88.3219999994 0 4.33615491332e-10)
(-88.3219999996 0 -9.49114763811e-11)
(-88.3220000014 0 -1.14823975319e-10)
(-88.3220000018 0 -1.2689644558e-10)
(-88.3219999989 0 -5.88976321189e-11)
(-88.3219999979 0 2.63239346008e-10)
(-88.3220000002 0 -7.05674134239e-11)
(-88.3220000014 0 1.22344803264e-10)
(-88.3219999999 0 -4.17390134543e-11)
(-88.3219999992 0 -3.10146715288e-11)
(-88.3220000007 0 5.54299943238e-11)
(-88.322 0 -2.07577782292e-11)
(-88.3219999994 0 -1.48415916633e-11)
(-88.3220000002 0 -6.07988480547e-11)
(-88.3220000001 0 -2.18289894033e-11)
(-88.3220000003 0 5.59430698979e-11)
(-88.3219999997 0 -2.22080485354e-10)
(-88.3220000002 0 7.85165458156e-11)
(-88.322 0 1.51101951394e-10)
(-88.3219999994 0 -1.9869708587e-10)
(-88.3220000003 0 -2.61179287936e-10)
(-88.3220000001 0 1.63121365533e-10)
(-88.3219999998 0 6.73287075081e-10)
(-88.3220000006 0 6.43035443908e-10)
(-88.3220000003 0 -2.65376577986e-10)
(-88.3219999999 0 -4.20659566118e-10)
(-88.3219999998 0 -3.00978508486e-10)
(-88.3219999995 0 -4.98117361949e-10)
(-88.3219999998 0 1.89863707189e-10)
(-88.3219999991 0 -4.79371107784e-10)
(-88.3219999992 0 3.59171426923e-10)
(-88.3220000013 0 -2.25349440619e-10)
(-88.3220000005 0 1.72517957949e-10)
(-88.3220000003 0 -3.46542617815e-10)
(-88.322 0 5.04453606853e-11)
(-88.322 0 -6.15781775715e-11)
(-88.322 0 1.11785393408e-11)
(-88.322 0 -8.5271829255e-11)
(-88.322 0 1.00561406558e-10)
(-88.322 0 5.39375100458e-11)
(-88.322 0 -1.07054344761e-10)
(-88.3220000001 0 2.01389505542e-10)
(-88.322 0 1.68099776669e-10)
(-88.322 0 -5.0012019427e-10)
(-88.322 0 5.91936191657e-10)
(-88.322 0 5.44215560796e-10)
(-88.3220000001 0 5.30397873762e-11)
(-88.3219999999 0 1.24172323706e-10)
(-88.322 0 -5.91150817195e-11)
(-88.322 0 1.0580441039e-10)
(-88.322 0 -8.15142205841e-12)
(-88.322 0 -5.20643051626e-12)
(-88.322 0 2.62430303929e-11)
(-88.322 0 -3.28318385107e-11)
(-88.322 0 1.48086287731e-11)
(-88.322 0 -2.94936432501e-11)
(-88.322 0 2.27587780306e-10)
(-88.322 0 -9.61084251049e-11)
(-88.322 0 -4.85257505943e-11)
(-88.322 0 1.21175291419e-10)
(-88.322 0 -2.19154931015e-11)
(-88.322 0 6.20390755858e-11)
(-88.322 0 -2.57313741102e-10)
(-88.322 0 6.06872836584e-11)
(-88.322 0 -1.29593285649e-10)
(-88.322 0 2.36372720249e-12)
(-88.322 0 1.79499374242e-10)
(-88.3220000004 0 -2.29849540047e-10)
(-88.3219999998 0 1.93914870242e-10)
(-88.3219999996 0 -2.3802931726e-10)
(-88.3220000001 0 -7.68935000099e-10)
(-88.322 0 2.10936817149e-10)
(-88.3220000001 0 3.52466947069e-10)
(-88.322 0 -5.85411076727e-11)
(-88.322 0 -1.03175795597e-10)
(-88.322 0 2.55203536599e-10)
(-88.3220000001 0 -1.19233855898e-10)
(-88.322 0 -4.35004263254e-11)
(-88.3219999999 0 -4.01507616371e-11)
(-88.322 0 -7.96494643027e-11)
(-88.3219999999 0 1.8325052235e-10)
(-88.3219999998 0 -5.15367032024e-12)
(-88.3220000004 0 2.4667712451e-10)
(-88.3220000005 0 -6.81396986095e-11)
(-88.3219999995 0 -9.26758826691e-11)
(-88.3219999985 0 -2.11940166068e-10)
(-88.3219999988 0 7.96062106188e-11)
(-88.322000002 0 1.46348019689e-10)
(-88.3220000024 0 -2.36543078633e-10)
(-88.3219999996 0 -1.16816613575e-10)
(-88.3219999999 0 -1.19167845338e-11)
(-88.3219999992 0 -1.44040528646e-10)
(-88.3219999998 0 8.15047965933e-11)
(-88.3219999992 0 6.64630212035e-11)
(-88.3219999992 0 -1.08077564549e-09)
(-88.3220000006 0 -9.96627383466e-10)
(-88.322 0 -2.48011171146e-10)
(-88.3219999996 0 1.93789091387e-10)
(-88.3220000001 0 1.28101997883e-10)
(-88.3219999998 0 -2.01905031255e-10)
(-88.3219999999 0 -6.93981238315e-11)
(-88.3219999997 0 1.01541793662e-10)
(-88.3219999999 0 7.12169091533e-11)
(-88.3220000003 0 -1.68084792981e-10)
(-88.3219999999 0 -1.99122949963e-10)
(-88.322 0 -2.89574239756e-11)
(-88.322 0 -1.03385103622e-10)
(-88.322 0 3.04410981386e-11)
(-88.3219999999 0 -4.2052457075e-11)
(-88.3220000003 0 -2.61854380422e-11)
(-88.3220000001 0 -2.10850143891e-11)
(-88.3219999998 0 -3.78696416585e-11)
(-88.322 0 -4.95409246197e-11)
(-88.322 0 -5.14449129646e-11)
(-88.322 0 -2.77621559766e-12)
(-88.322 0 6.00501739363e-11)
(-88.322 0 -1.7447578405e-10)
(-88.3219999998 0 -7.73520929885e-11)
(-88.3219999998 0 5.8555006991e-10)
(-88.322 0 4.01805830998e-10)
(-88.3220000001 0 -4.99951565865e-10)
(-88.3220000001 0 -3.61542353053e-10)
(-88.322 0 -9.78713926138e-11)
(-88.3219999998 0 8.39030246692e-11)
(-88.3220000003 0 -2.05262638691e-10)
(-88.3220000004 0 1.59464153593e-10)
(-88.322 0 -1.59931828705e-10)
(-88.3220000002 0 -4.1673676417e-10)
(-88.3219999995 0 -3.45586640638e-10)
(-88.3219999989 0 3.41017479146e-10)
(-88.3220000018 0 -4.63548044091e-10)
(-88.3220000017 0 -4.94812918748e-10)
(-88.321999999 0 -4.3338963773e-10)
(-88.3219999998 0 4.8055328952e-10)
(-88.3219999993 0 3.41349078867e-10)
(-88.321999999 0 -3.93808406981e-10)
(-88.3220000003 0 -2.4126114932e-10)
(-88.322 0 5.75823918145e-10)
(-88.322 0 1.42138197032e-10)
(-88.3220000001 0 -4.08277479453e-10)
(-88.322 0 -6.23617431042e-10)
(-88.322 0 2.41253453195e-10)
(-88.3220000002 0 -2.45554347488e-10)
(-88.3219999998 0 -1.16438898458e-10)
(-88.3219999996 0 -5.32274693023e-10)
(-88.322 0 4.21532741096e-10)
(-88.3220000002 0 -1.59312582543e-10)
(-88.322 0 7.7081986326e-11)
(-88.3220000007 0 3.74257703321e-10)
(-88.3219999998 0 -4.64129724058e-10)
(-88.3219999991 0 -1.07327120598e-09)
(-88.3220000012 0 -1.28426230098e-09)
(-88.3220000008 0 -4.8794616595e-10)
(-88.3219999994 0 1.11587174686e-09)
(-88.3219999998 0 6.35310594101e-10)
(-88.3219999992 0 -7.98326707507e-11)
(-88.3219999994 0 -8.02523904497e-10)
(-88.3220000014 0 8.40878221224e-10)
(-88.3220000013 0 -5.20718480061e-11)
(-88.3219999995 0 -2.00966833527e-10)
(-88.3219999993 0 -5.28076904836e-11)
(-88.322 0 1.11612195696e-10)
(-88.3220000008 0 4.40731052487e-11)
(-88.3220000004 0 3.32192759463e-10)
(-88.3219999994 0 -2.50623983821e-10)
(-88.3219999997 0 2.32382366884e-10)
(-88.3220000006 0 -2.86415001894e-10)
(-88.3220000005 0 2.9295655155e-10)
(-88.3219999997 0 3.25356847993e-10)
(-88.322 0 -2.66022270866e-10)
(-88.3219999998 0 -4.4609456689e-10)
(-88.322 0 -1.23473385289e-10)
(-88.3220000001 0 -4.99646087764e-10)
(-88.322 0 -4.62461763613e-10)
(-88.3220000001 0 -1.11110151781e-10)
(-88.322 0 7.09124403138e-11)
(-88.322 0 5.64811379511e-11)
(-88.3219999999 0 1.30005150476e-10)
(-88.3219999998 0 -4.04957582848e-10)
(-88.3220000004 0 -8.00954252902e-10)
(-88.3220000002 0 3.61893307646e-10)
(-88.3219999984 0 3.47241141169e-10)
(-88.321999999 0 8.23324525874e-10)
(-88.3220000022 0 -5.3215421877e-10)
(-88.3220000015 0 -5.35801942548e-10)
(-88.3219999992 0 3.41511060589e-10)
(-88.3219999992 0 3.23510766465e-10)
(-88.3220000002 0 3.20395185109e-10)
(-88.3219999999 0 1.01193980148e-10)
(-88.322 0 3.83908538625e-10)
(-88.3220000011 0 1.03237921633e-10)
(-88.3220000003 0 6.29192761667e-11)
(-88.3219999985 0 9.90223272824e-11)
(-88.3220000002 0 -1.57479258132e-10)
(-88.3220000016 0 -4.10605343853e-10)
(-88.3220000004 0 5.90716502518e-10)
(-88.3219999979 0 9.02611199092e-10)
(-88.321999998 0 5.89946830353e-10)
(-88.3220000017 0 8.01070948869e-10)
(-88.3220000012 0 -6.06085290692e-10)
(-88.3219999982 0 -6.7832662482e-11)
(-88.3219999992 0 5.7103795622e-11)
(-88.322000002 0 -8.52446187686e-11)
(-88.3220000015 0 6.79692553958e-11)
(-88.3219999987 0 -1.26938667421e-10)
(-88.3219999993 0 6.26048394673e-11)
(-88.3220000006 0 -1.31725556558e-10)
(-88.3220000006 0 -3.32985060632e-10)
(-88.3219999988 0 2.6911637485e-10)
(-88.321999999 0 3.82454834096e-10)
(-88.3220000011 0 5.21428545024e-10)
(-88.3219999994 0 -3.6474830814e-10)
(-88.3220000005 0 -3.67211244877e-10)
(-88.3220000013 0 8.49297399452e-10)
(-88.3220000004 0 1.46728259846e-10)
(-88.3220000009 0 1.26335767063e-10)
(-88.3219999977 0 3.69867567638e-10)
(-88.3219999974 0 5.87632171895e-10)
(-88.3220000023 0 7.36442577406e-10)
(-88.3220000019 0 -2.76107442107e-10)
(-88.3219999979 0 -4.94074405954e-10)
(-88.3219999977 0 -2.01184767522e-10)
(-88.3220000012 0 4.75254675826e-10)
(-88.3220000006 0 4.71768061321e-10)
(-88.3219999992 0 3.20123546164e-10)
(-88.322 0 -2.40971577096e-10)
(-88.3219999997 0 -2.4038632561e-10)
(-88.3220000004 0 1.6672403954e-10)
(-88.322 0 -2.65834426758e-11)
(-88.3219999998 0 -9.24830474798e-11)
(-88.3219999998 0 -1.49175765568e-10)
(-88.3219999991 0 1.7618659357e-10)
(-88.322000001 0 1.42118265452e-10)
(-88.3220000015 0 5.15296324335e-11)
(-88.3219999997 0 -4.7061281409e-11)
(-88.322 0 -4.22764870529e-10)
(-88.3220000005 0 -1.8308424952e-11)
(-88.3219999995 0 -1.09021042531e-10)
(-88.321999999 0 -1.36408428753e-10)
(-88.3219999994 0 9.73786774098e-11)
(-88.3219999999 0 -1.47212536045e-10)
(-88.3220000009 0 -1.26076596689e-11)
(-88.3220000019 0 -7.57169955972e-12)
(-88.3219999986 0 -7.29878159267e-11)
(-88.3219999978 0 2.07503571538e-10)
(-88.3219999989 0 -7.90453587783e-12)
(-88.3220000016 0 -3.96757605134e-10)
(-88.3220000028 0 -2.52682855925e-10)
(-88.3219999985 0 3.46773126185e-10)
(-88.3219999983 0 5.1465253462e-10)
(-88.322 0 9.30110484025e-11)
(-88.3220000001 0 -4.63024352447e-11)
(-88.3220000001 0 2.09036733559e-10)
(-88.3220000004 0 -1.10293201483e-10)
(-88.3220000006 0 1.73548002262e-10)
(-88.3220000001 0 4.25077390386e-10)
(-88.322 0 3.40868811302e-10)
(-88.3219999998 0 -3.26857290921e-10)
(-88.3220000004 0 5.7167887519e-10)
(-88.3219999993 0 2.57246466093e-10)
(-88.3219999988 0 6.92815486506e-10)
(-88.3220000001 0 -5.31964141881e-10)
(-88.3220000017 0 -3.46674862494e-10)
(-88.3220000007 0 5.44896254005e-10)
(-88.3219999991 0 1.85753152688e-10)
(-88.322 0 -5.94974470111e-10)
(-88.3220000001 0 -1.37139359471e-10)
(-88.3220000002 0 3.88092560339e-10)
(-88.322 0 6.53682053859e-10)
(-88.3219999999 0 -4.39904684784e-10)
(-88.322000001 0 2.47845559244e-10)
(-88.3219999991 0 8.71877468423e-11)
(-88.3219999981 0 5.49983621497e-10)
(-88.3219999996 0 -4.53061189018e-10)
(-88.3220000018 0 3.04850151923e-11)
(-88.3220000018 0 1.85143880124e-10)
(-88.3219999982 0 -6.66819251211e-10)
(-88.3219999988 0 1.20842017277e-10)
(-88.3220000005 0 8.60423615197e-10)
(-88.3220000007 0 8.17708765074e-10)
(-88.322 0 5.2949479313e-10)
(-88.3219999989 0 -4.52018503497e-10)
(-88.3220000014 0 -6.4346537234e-10)
(-88.3220000015 0 5.43486400476e-10)
(-88.3219999994 0 5.58068789204e-10)
(-88.3219999996 0 -4.58820858807e-10)
(-88.322 0 -5.55698463684e-10)
(-88.3219999999 0 1.48023527871e-10)
(-88.322 0 -1.80661225659e-10)
(-88.322 0 -4.7598136007e-11)
(-88.322 0 1.52267499863e-10)
(-88.322 0 -2.73716994464e-10)
(-88.322 0 1.7914127925e-10)
(-88.322 0 -1.5671897589e-10)
(-88.322 0 1.48512909383e-10)
(-88.322 0 -2.64046803348e-10)
(-88.322 0 -1.71650647802e-10)
(-88.3220000003 0 -2.47511930369e-10)
(-88.3220000007 0 1.61579669852e-11)
(-88.3219999999 0 4.11431024472e-10)
(-88.3219999994 0 1.9175432247e-10)
(-88.3220000002 0 -1.58587926549e-10)
(-88.3219999997 0 -3.26698244211e-10)
(-88.322 0 1.8147944357e-10)
(-88.3220000002 0 2.27191312432e-10)
(-88.3219999996 0 -3.0045305669e-10)
(-88.322 0 4.64515115539e-10)
(-88.322 0 7.99528756078e-10)
(-88.3220000001 0 -3.36855506055e-10)
(-88.3219999996 0 -3.55654490023e-10)
(-88.3219999996 0 -8.55607910973e-10)
(-88.3220000006 0 4.33255165067e-10)
(-88.322 0 4.86258419965e-10)
(-88.3219999998 0 -3.69811538674e-10)
(-88.3220000002 0 -3.32209827826e-10)
(-88.3219999999 0 -3.83940374728e-10)
(-88.322 0 -2.52620847037e-10)
(-88.322 0 -2.5062187073e-10)
(-88.322 0 -1.28200088722e-10)
(-88.322 0 1.38056088578e-10)
(-88.322 0 1.45075418209e-10)
(-88.3219999997 0 -1.6377098415e-10)
(-88.3220000004 0 4.20064483928e-10)
(-88.3220000003 0 -3.25287424137e-10)
(-88.3219999995 0 -8.21508943828e-10)
(-88.322 0 -6.36625244662e-10)
(-88.3219999997 0 -1.79213073453e-10)
(-88.3220000002 0 -1.53950585513e-11)
(-88.3220000005 0 -5.07289369437e-10)
(-88.3219999998 0 2.41565091415e-10)
(-88.322 0 4.05235294833e-10)
(-88.322 0 -3.90580775228e-10)
(-88.3220000004 0 9.13245355287e-11)
(-88.3220000002 0 -5.5698710281e-10)
(-88.3219999996 0 -4.85257440076e-10)
(-88.322 0 1.80296302533e-10)
(-88.3219999998 0 -8.9314932169e-10)
(-88.322 0 -5.54873282049e-10)
(-88.3219999999 0 -5.50845048063e-10)
(-88.3220000008 0 2.3875591114e-10)