/*--------------------------------*- C++ -*----------------------------------*\
  =========                 |
  \\      /  F ield         | OpenFOAM: The Open Source CFD Toolbox
   \\    /   O peration     | Website:  https://openfoam.org
    \\  /    A nd           | Version:  6
     \\/     M anipulation  |
\*---------------------------------------------------------------------------*/
FoamFile
{
    version     2.0;
    format      ascii;
    class       volVectorField;
    location    "1.4e-05";
    object      U;
}
// * * * * * * * * * * * * * * * * * * * * * * * * * * * * * * * * * * * * * //

dimensions      [0 1 -1 0 0 0 0];

internalField   nonuniform List<vector> 
8192
(
(-88.3220000001 0 -2.71409994973e-11)
(-88.322 0 -3.35819157737e-12)
(-88.322 0 -7.85905778802e-12)
(-88.322 0 -1.36315499024e-11)
(-88.322 0 2.11217908556e-12)
(-88.322 0 -1.80172335759e-12)
(-88.322 0 -5.50907692375e-13)
(-88.322 0 -9.66237097474e-14)
(-88.322 0 -1.12033780686e-11)
(-88.322 0 -3.16295593051e-11)
(-88.322 0 -4.39838285706e-11)
(-88.322 0 1.17468070903e-11)
(-88.322 0 8.30474609824e-12)
(-88.322 0 -2.74718356378e-11)
(-88.322 0 -6.80892779916e-11)
(-88.322 0 1.19459680042e-11)
(-88.322 0 -1.03135854434e-11)
(-88.322 0 3.24280073265e-11)
(-88.322 0 -4.24715193228e-11)
(-88.322 0 -4.16695481024e-11)
(-88.322 0 2.96818989298e-11)
(-88.322 0 3.75264918697e-11)
(-88.322 0 -2.29230382807e-12)
(-88.322 0 -5.44094254556e-12)
(-88.322 0 3.84501445809e-12)
(-88.322 0 2.26438631184e-12)
(-88.322 0 6.8033529056e-12)
(-88.322 0 7.99579701942e-12)
(-88.322 0 2.53637581534e-12)
(-88.322 0 -5.01741501943e-12)
(-88.322 0 1.16340664124e-11)
(-88.322 0 -7.37047081422e-13)
(-88.3219999999 0 -1.07628316738e-11)
(-88.322 0 4.04999724611e-11)
(-88.3220000001 0 -2.83589695147e-11)
(-88.3219999999 0 -2.55829763576e-11)
(-88.322 0 9.82343018821e-12)
(-88.322 0 -4.91730341501e-11)
(-88.3219999999 0 1.99111622243e-11)
(-88.322 0 -2.25500889816e-12)
(-88.322 0 7.92962367513e-12)
(-88.322 0 -9.11794200545e-13)
(-88.322 0 -5.4357412562e-12)
(-88.322 0 -1.84441557673e-12)
(-88.322 0 -1.14365915869e-11)
(-88.322 0 -3.22281973452e-12)
(-88.322 0 -7.85995488976e-13)
(-88.322 0 -1.41730124327e-13)
(-88.322 0 2.3658807552e-12)
(-88.322 0 -5.76104159968e-12)
(-88.322 0 -1.15375817751e-12)
(-88.322 0 -7.70685272593e-12)
(-88.322 0 -8.16597441483e-13)
(-88.322 0 1.27921096763e-11)
(-88.322 0 6.53067754364e-12)
(-88.322 0 -1.84255190292e-11)
(-88.322 0 6.25927302876e-12)
(-88.322 0 -1.14768111776e-11)
(-88.322 0 -3.88633994735e-12)
(-88.322 0 -8.02332357092e-13)
(-88.3219999999 0 1.80980271191e-11)
(-88.322 0 4.40536365225e-11)
(-88.322 0 3.78029490039e-11)
(-88.3220000001 0 3.22161842365e-11)
(-88.322 0 1.09492890215e-11)
(-88.322 0 1.0255867664e-12)
(-88.322 0 4.57951410556e-12)
(-88.322 0 -2.50913258388e-13)
(-88.322 0 -1.01967176647e-13)
(-88.322 0 -3.34506880629e-13)
(-88.322 0 -1.39066483048e-13)
(-88.322 0 3.01610233339e-14)
(-88.322 0 -2.99923486357e-13)
(-88.3220000001 0 -6.01637760538e-12)
(-88.3219999999 0 -5.3134289526e-13)
(-88.3219999999 0 -1.16243343547e-11)
(-88.3220000001 0 -2.70484171678e-13)
(-88.3220000002 0 -1.6231265297e-13)
(-88.3219999999 0 -1.88797808054e-12)
(-88.3219999999 0 3.49417870742e-12)
(-88.322 0 6.79347086044e-14)
(-88.3220000001 0 9.5152092165e-13)
(-88.3220000001 0 -7.76993156793e-12)
(-88.3219999999 0 -5.15968242621e-13)
(-88.3219999999 0 2.72872679176e-13)
(-88.3220000001 0 2.54998204653e-13)
(-88.3220000001 0 -1.87777206629e-13)
(-88.322 0 2.1821214051e-13)
(-88.322 0 2.95870162598e-11)
(-88.322 0 -2.92474244854e-11)
(-88.322 0 1.971982371e-11)
(-88.322 0 2.17545762538e-11)
(-88.322 0 1.25650046173e-11)
(-88.322 0 4.43283618381e-13)
(-88.322 0 -9.87541146582e-14)
(-88.322 0 -7.68731502818e-13)
(-88.322 0 5.65187239168e-12)
(-88.322 0 -3.71698282511e-11)
(-88.322 0 1.31127913667e-11)
(-88.322 0 1.36476668705e-11)
(-88.322 0 -1.48549779945e-11)
(-88.322 0 6.83624607138e-12)
(-88.322 0 -1.57334621884e-11)
(-88.322 0 2.13034986524e-12)
(-88.322 0 3.87883427143e-12)
(-88.322 0 -1.04194367676e-12)
(-88.322 0 -4.37132722281e-13)
(-88.322 0 1.36283247022e-12)
(-88.322 0 -2.68565369487e-11)
(-88.322 0 -2.33992828133e-11)
(-88.322 0 -3.69223076821e-11)
(-88.322 0 -1.72412779294e-11)
(-88.322 0 -2.41480278793e-11)
(-88.322 0 -1.5387313592e-11)
(-88.322 0 1.13375294052e-11)
(-88.322 0 3.84947728988e-13)
(-88.322 0 -9.27395998516e-13)
(-88.322 0 -1.24117036307e-12)
(-88.322 0 -1.38129975266e-11)
(-88.322 0 4.0676377346e-11)
(-88.322 0 -9.74360337703e-12)
(-88.322 0 -3.03770840864e-11)
(-88.322 0 -5.83636129796e-11)
(-88.322 0 3.44451404872e-12)
(-88.322 0 1.04868725845e-11)
(-88.322 0 -8.53355516127e-11)
(-88.322 0 -6.78233333391e-11)
(-88.322 0 -3.92655710218e-11)
(-88.322 0 3.56783516911e-12)
(-88.322 0 2.29861205101e-12)
(-88.322 0 -2.29662786973e-12)
(-88.322 0 1.38340779118e-11)
(-88.322 0 2.62112925256e-12)
(-88.322 0 5.64681516177e-12)
(-88.322 0 1.07627244996e-12)
(-88.322 0 2.22116979535e-12)
(-88.322 0 4.45792623937e-12)
(-88.322 0 3.02110650313e-11)
(-88.322 0 4.28388488921e-11)
(-88.322 0 -9.50653064639e-12)
(-88.322 0 -1.25491386005e-11)
(-88.322 0 1.60984030619e-11)
(-88.322 0 6.45755832282e-11)
(-88.322 0 -1.15332840801e-11)
(-88.322 0 9.49911341977e-12)
(-88.322 0 -2.58566748145e-11)
(-88.322 0 4.18323867464e-11)
(-88.322 0 3.65070596691e-11)
(-88.322 0 -2.93524525724e-11)
(-88.322 0 -2.94318592494e-11)
(-88.322 0 9.85110719762e-12)
(-88.3219999999 0 5.72716363563e-12)
(-88.3220000001 0 3.64453141533e-12)
(-88.322 0 -2.23129648751e-12)
(-88.3219999999 0 5.48909585035e-13)
(-88.322 0 1.76462518033e-12)
(-88.3220000001 0 1.36092232289e-11)
(-88.322 0 -2.91732588058e-11)
(-88.322 0 1.6346789305e-11)
(-88.322 0 2.79638335554e-12)
(-88.322 0 -4.02974072842e-12)
(-88.322 0 1.73000539952e-11)
(-88.322 0 4.52329294485e-11)
(-88.322 0 9.65452298121e-12)
(-88.3220000001 0 -2.11814061547e-11)
(-88.322 0 3.46463510726e-11)
(-88.3219999999 0 5.74006975297e-11)
(-88.322 0 -4.77993523381e-11)
(-88.322 0 -3.13801001908e-11)
(-88.322 0 -1.08082551885e-12)
(-88.322 0 -1.55569949185e-11)
(-88.3220000001 0 -1.70454157039e-12)
(-88.322 0 -1.19296925801e-11)
(-88.322 0 -1.28826067664e-12)
(-88.322 0 -1.71935603785e-11)
(-88.322 0 -5.98903666568e-11)
(-88.322 0 5.68205524505e-12)
(-88.3219999999 0 5.75615251754e-13)
(-88.322 0 -8.04845145267e-12)
(-88.322 0 1.84864140203e-11)
(-88.322 0 -4.72090453753e-11)
(-88.322 0 1.28262482835e-11)
(-88.322 0 -9.43012550583e-12)
(-88.322 0 -3.28552687304e-11)
(-88.3220000001 0 -2.3025394352e-11)
(-88.3220000001 0 -1.91381852491e-11)
(-88.3219999999 0 -6.50247331994e-12)
(-88.3219999998 0 -1.517463866e-12)
(-88.3220000001 0 -1.71457087423e-13)
(-88.3220000001 0 7.28326441443e-12)
(-88.3219999999 0 2.52400618064e-13)
(-88.322 0 4.07179373594e-12)
(-88.322 0 1.54084354944e-11)
(-88.322 0 8.86260016585e-13)
(-88.322 0 2.06149340201e-12)
(-88.322 0 8.42551618478e-12)
(-88.322 0 -7.31386072124e-12)
(-88.322 0 -2.02157086921e-13)
(-88.322 0 2.65793159513e-13)
(-88.322 0 5.05395916532e-12)
(-88.322 0 8.20782504829e-13)
(-88.322 0 1.09109559298e-11)
(-88.322 0 8.85407045404e-13)
(-88.322 0 6.26392423874e-12)
(-88.322 0 6.68401993201e-12)
(-88.322 0 1.1025799725e-11)
(-88.322 0 3.03988136331e-12)
(-88.322 0 -7.6847246869e-12)
(-88.322 0 3.58680827258e-13)
(-88.322 0 -5.91871725101e-12)
(-88.322 0 8.14606428906e-12)
(-88.322 0 6.78056761299e-13)
(-88.322 0 -7.2967770211e-12)
(-88.322 0 -5.45311813754e-11)
(-88.322 0 1.34599812183e-11)
(-88.322 0 3.88464746058e-12)
(-88.322 0 -2.28975476627e-11)
(-88.322 0 3.45718730917e-11)
(-88.322 0 -1.42760546448e-11)
(-88.322 0 -2.46625544924e-11)
(-88.3220000001 0 -1.19766583119e-11)
(-88.322 0 -3.04914002909e-13)
(-88.3219999999 0 7.69485382554e-12)
(-88.3220000001 0 -3.83404975585e-12)
(-88.322 0 -3.18401956689e-13)
(-88.3219999999 0 -2.61059089476e-12)
(-88.322 0 9.29080731865e-12)
(-88.3220000001 0 1.18112359133e-11)
(-88.322 0 -1.17044639636e-12)
(-88.3219999998 0 4.08558916001e-11)
(-88.3220000002 0 -3.55524090537e-12)
(-88.3220000002 0 2.82537176698e-14)
(-88.3219999999 0 -3.66708081177e-12)
(-88.322 0 -2.50015912004e-12)
(-88.322 0 2.73579050346e-13)
(-88.322 0 4.81696208706e-13)
(-88.322 0 3.71753554855e-11)
(-88.322 0 2.54094116363e-11)
(-88.3220000001 0 3.68019535895e-11)
(-88.322 0 1.59834726993e-11)
(-88.3219999999 0 2.48634753592e-11)
(-88.322 0 1.65311326087e-11)
(-88.322 0 -1.02507460732e-11)
(-88.3220000001 0 -1.2599047718e-13)
(-88.322 0 -1.45954519384e-12)
(-88.3219999999 0 2.01191954499e-11)
(-88.3220000001 0 4.94988124962e-11)
(-88.322 0 -4.76967492675e-11)
(-88.322 0 -1.64510279349e-12)
(-88.322 0 4.21407599638e-11)
(-88.322 0 4.39034670175e-11)
(-88.322 0 9.40091559476e-12)
(-88.322 0 -5.62491955621e-11)
(-88.322 0 7.40948037146e-11)
(-88.322 0 3.16289286804e-11)
(-88.322 0 1.51920496013e-11)
(-88.322 0 -1.03107092713e-11)
(-88.322 0 -3.51929369815e-12)
(-88.322 0 4.48877857867e-12)
(-88.322 0 5.41702096172e-14)
(-88.322 0 -5.12089195036e-12)
(-88.322 0 2.56317228373e-13)
(-88.322 0 -6.27957101412e-13)
(-88.322 0 8.6481681979e-12)
(-88.322 0 5.31551202773e-12)
(-88.322 0 1.0480486545e-12)
(-88.322 0 2.66543040212e-12)
(-88.322 0 -1.686512319e-11)
(-88.322 0 -2.14717069218e-11)
(-88.322 0 -2.76666589604e-12)
(-88.322 0 7.38220634271e-13)
(-88.322 0 7.36915160231e-13)
(-88.322 0 4.16249861215e-12)
(-88.322 0 1.62727687199e-12)
(-88.322 0 -4.28854902784e-13)
(-88.322 0 3.56804572944e-12)
(-88.3220000001 0 3.88201534112e-13)
(-88.3219999999 0 -7.87851324675e-13)
(-88.3219999999 0 2.03925489545e-12)
(-88.322 0 -9.52706132869e-12)
(-88.322 0 2.87798649214e-12)
(-88.322 0 1.21766147991e-12)
(-88.322 0 6.13289610341e-12)
(-88.322 0 8.69483790682e-12)
(-88.322 0 1.71374731715e-11)
(-88.322 0 1.90310208292e-11)
(-88.322 0 1.28277776095e-12)
(-88.322 0 1.9086325354e-11)
(-88.322 0 -8.7259806233e-12)
(-88.322 0 -2.03316383436e-11)
(-88.322 0 -6.63036262483e-11)
(-88.322 0 -3.33706819066e-11)
(-88.322 0 2.43442516177e-11)
(-88.322 0 -5.31887613101e-11)
(-88.322 0 -5.61065299453e-11)
(-88.322 0 3.62673292252e-11)
(-88.322 0 1.78374604664e-11)
(-88.322 0 3.2839190059e-12)
(-88.322 0 9.22027718764e-12)
(-88.322 0 3.93377794196e-13)
(-88.322 0 7.01134877551e-13)
(-88.322 0 8.34001817382e-13)
(-88.322 0 1.25341584882e-11)
(-88.322 0 4.89754237336e-11)
(-88.322 0 -3.20369087955e-12)
(-88.322 0 -3.9318967947e-12)
(-88.322 0 6.5076520265e-12)
(-88.322 0 -8.75880453515e-12)
(-88.322 0 3.74608227806e-11)
(-88.3219999999 0 -1.84478839995e-11)
(-88.3220000001 0 -1.09869218349e-12)
(-88.3220000001 0 -9.98376844578e-13)
(-88.3219999999 0 -2.37904354489e-11)
(-88.322 0 1.81632352369e-11)
(-88.322 0 -5.59650297892e-11)
(-88.322 0 3.57781640376e-11)
(-88.322 0 6.72641161172e-12)
(-88.3219999999 0 1.63007676283e-11)
(-88.322 0 1.03468980847e-11)
(-88.322 0 6.31113530604e-12)
(-88.322 0 -1.94473292413e-12)
(-88.322 0 3.55391171939e-13)
(-88.322 0 6.10664322184e-14)
(-88.322 0 4.20167335316e-11)
(-88.322 0 -2.07928827216e-11)
(-88.322 0 3.72763328769e-11)
(-88.322 0 5.47749728655e-11)
(-88.322 0 -9.33373948005e-12)
(-88.322 0 3.8656710395e-13)
(-88.322 0 4.66686719946e-12)
(-88.322 0 -1.60673264001e-12)
(-88.322 0 1.00313611326e-11)
(-88.322 0 6.17756347072e-12)
(-88.322 0 -8.08866201027e-12)
(-88.322 0 3.76868211883e-11)
(-88.322 0 4.26439188658e-11)
(-88.322 0 2.52409249398e-11)
(-88.322 0 1.1742324969e-11)
(-88.322 0 -2.4542633425e-12)
(-88.322 0 -1.69301822613e-12)
(-88.322 0 3.78264515827e-11)
(-88.322 0 7.38158664245e-11)
(-88.322 0 -1.08577892433e-11)
(-88.322 0 -2.84287312659e-11)
(-88.322 0 -2.82605601641e-11)
(-88.322 0 3.81610098392e-11)
(-88.322 0 2.75681193824e-11)
(-88.322 0 -9.25136307074e-13)
(-88.3220000001 0 3.74776389686e-11)
(-88.322 0 2.31384410268e-11)
(-88.3219999999 0 1.27116239178e-11)
(-88.3220000001 0 -1.33589126489e-11)
(-88.322 0 1.89897947983e-12)
(-88.322 0 1.66107033873e-13)
(-88.322 0 -4.99596559354e-13)
(-88.3219999999 0 -8.62495571399e-13)
(-88.322 0 3.52108978353e-12)
(-88.322 0 1.32369920628e-12)
(-88.322 0 -2.70895084546e-13)
(-88.322 0 8.84202300062e-12)
(-88.322 0 2.88894084393e-12)
(-88.322 0 -4.31297910106e-12)
(-88.322 0 2.67760685978e-13)
(-88.322 0 3.08493753115e-13)
(-88.322 0 -1.75228509146e-13)
(-88.322 0 -7.29032069263e-14)
(-88.322 0 -9.48470173537e-13)
(-88.322 0 8.59011892188e-12)
(-88.322 0 -3.93200161653e-12)
(-88.322 0 -2.39915058326e-13)
(-88.322 0 5.83668936959e-13)
(-88.322 0 5.96859588175e-12)
(-88.322 0 1.77541930715e-11)
(-88.322 0 -2.18724782306e-11)
(-88.3220000001 0 -3.49290317441e-11)
(-88.322 0 2.62681885733e-11)
(-88.3219999999 0 1.20594657704e-11)
(-88.322 0 2.86544579273e-12)
(-88.3219999999 0 1.80294136091e-11)
(-88.3219999999 0 -1.17464703243e-11)
(-88.322 0 2.63167283262e-11)
(-88.322 0 -2.83992942095e-11)
(-88.322 0 1.06612087907e-11)
(-88.322 0 -7.99919325188e-12)
(-88.322 0 8.10061619778e-12)
(-88.322 0 1.56190220607e-12)
(-88.3219999999 0 -5.83428731241e-12)
(-88.3220000001 0 3.80423076785e-13)
(-88.322 0 5.57721487756e-13)
(-88.3219999998 0 -2.1555640321e-13)
(-88.3220000001 0 -5.15530013974e-12)
(-88.3220000001 0 -6.3045044015e-12)
(-88.322 0 4.58685464476e-13)
(-88.322 0 -1.01400490446e-11)
(-88.322 0 2.16319351823e-11)
(-88.322 0 -3.52994510168e-11)
(-88.322 0 -5.47801612638e-11)
(-88.3219999999 0 -1.74978229617e-11)
(-88.3219999999 0 -9.86195644529e-12)
(-88.322 0 -6.88474489302e-13)
(-88.3220000001 0 -3.31017282842e-12)
(-88.322 0 -3.30776324364e-12)
(-88.322 0 9.29437295461e-13)
(-88.3219999999 0 -4.05539008466e-13)
(-88.322 0 -5.98235313542e-14)
(-88.322 0 -2.55196538096e-12)
(-88.3220000001 0 -1.1091868812e-12)
(-88.322 0 9.7717875585e-12)
(-88.3219999999 0 -8.25789685606e-12)
(-88.3219999999 0 -3.59165134227e-13)
(-88.3220000001 0 -9.84979861844e-12)
(-88.322 0 -7.82883692027e-12)
(-88.322 0 -3.08643919327e-11)
(-88.322 0 7.17379043272e-12)
(-88.3220000001 0 -2.70299449078e-11)
(-88.322 0 -2.5702041725e-11)
(-88.322 0 3.21157803542e-11)
(-88.322 0 1.96730462623e-11)
(-88.322 0 -1.63483993645e-11)
(-88.322 0 7.32639248162e-12)
(-88.322 0 -2.50703977933e-11)
(-88.322 0 6.12708371408e-11)
(-88.322 0 1.51341590848e-11)
(-88.322 0 -5.09384584793e-12)
(-88.322 0 4.73883256151e-12)
(-88.322 0 8.44722154907e-13)
(-88.322 0 4.59372734361e-14)
(-88.322 0 3.11286219861e-12)
(-88.322 0 1.07601000018e-11)
(-88.322 0 -1.67986863797e-14)
(-88.322 0 -1.80970091994e-14)
(-88.322 0 -8.15832825507e-14)
(-88.322 0 5.60010819123e-13)
(-88.322 0 1.74706658272e-13)
(-88.322 0 3.05868850747e-12)
(-88.322 0 3.85270568936e-13)
(-88.322 0 -3.71321549652e-13)
(-88.322 0 -4.27887869643e-12)
(-88.322 0 2.34771430389e-12)
(-88.322 0 2.00023682262e-11)
(-88.322 0 2.74840445583e-11)
(-88.322 0 -3.37314590764e-12)
(-88.322 0 6.23535766461e-11)
(-88.322 0 -2.54930185259e-11)
(-88.322 0 -2.77582961997e-12)
(-88.322 0 1.0932930688e-11)
(-88.322 0 1.25635667516e-11)
(-88.322 0 -4.96482154198e-12)
(-88.322 0 1.45360997813e-11)
(-88.322 0 9.18750549851e-13)
(-88.322 0 -9.53165419977e-14)
(-88.322 0 -3.72566410515e-11)
(-88.322 0 2.8145054787e-11)
(-88.322 0 -3.64362446185e-11)
(-88.322 0 -5.48190334142e-11)
(-88.322 0 9.28440989365e-12)
(-88.322 0 -4.19381606304e-13)
(-88.322 0 -9.26600425285e-12)
(-88.3220000001 0 2.05763550698e-12)
(-88.3220000002 0 -4.09936143125e-12)
(-88.3219999999 0 8.27328929265e-12)
(-88.3219999999 0 -1.8663133653e-12)
(-88.322 0 -3.74253504708e-11)
(-88.322 0 -3.55176936441e-11)
(-88.322 0 -2.12821349471e-11)
(-88.322 0 -7.45439113431e-12)
(-88.322 0 2.05309307082e-12)
(-88.322 0 1.99958773648e-12)
(-88.322 0 -2.66566380477e-11)
(-88.322 0 -1.91855946388e-11)
(-88.322 0 -1.38288778457e-12)
(-88.322 0 2.38620191616e-11)
(-88.322 0 2.1875776825e-11)
(-88.322 0 -3.8774144061e-11)
(-88.322 0 -3.29685700263e-11)
(-88.322 0 1.79355026583e-12)
(-88.322 0 -3.79697452836e-11)
(-88.322 0 -2.29306517895e-11)
(-88.322 0 -2.03097011292e-11)
(-88.322 0 1.8332076201e-11)
(-88.322 0 -9.62672872943e-13)
(-88.3220000001 0 -4.56729888076e-13)
(-88.3220000001 0 -1.14046029563e-12)
(-88.322 0 3.84508493525e-13)
(-88.3219999999 0 1.00425813968e-11)
(-88.3219999999 0 -1.23595288938e-12)
(-88.3220000001 0 4.11563685533e-12)
(-88.322 0 -8.1701308733e-12)
(-88.322 0 -3.01640324921e-12)
(-88.322 0 7.86011503945e-12)
(-88.322 0 3.20045325876e-13)
(-88.322 0 -1.45525493228e-12)
(-88.322 0 -1.069087845e-11)
(-88.322 0 -2.3464493848e-12)
(-88.322 0 1.04786328735e-12)
(-88.322 0 -7.68762827043e-12)
(-88.322 0 3.35748501801e-12)
(-88.322 0 2.76492513853e-13)
(-88.322 0 -1.42413131709e-12)
(-88.322 0 -6.1737901671e-12)
(-88.322 0 -1.60272978223e-11)
(-88.322 0 2.42450512105e-11)
(-88.322 0 3.50625185818e-11)
(-88.322 0 -4.44657518305e-11)
(-88.322 0 -2.49739411022e-11)
(-88.322 0 -3.92408643917e-12)
(-88.322 0 -2.19475958693e-11)
(-88.322 0 1.03832973243e-11)
(-88.322 0 -2.73859653871e-11)
(-88.322 0 3.0471347423e-11)
(-88.3220000001 0 -8.89496442363e-12)
(-88.322 0 8.30641256239e-12)
(-88.322 0 -2.09159688295e-12)
(-88.322 0 3.24530740465e-13)
(-88.322 0 5.7179640615e-12)
(-88.322 0 -2.72762964405e-13)
(-88.322 0 4.680355906e-13)
(-88.322 0 3.79224137105e-12)
(-88.322 0 3.93122128669e-12)
(-88.322 0 -2.40583377478e-12)
(-88.322 0 -1.23686730459e-12)
(-88.322 0 3.18874708792e-12)
(-88.322 0 -2.48349482955e-11)
(-88.322 0 4.87754437228e-11)
(-88.322 0 7.80544222139e-11)
(-88.322 0 1.85320086939e-11)
(-88.322 0 9.25032360327e-12)
(-88.322 0 -7.79965693141e-14)
(-88.322 0 -1.1152042565e-12)
(-88.322 0 4.01926917808e-12)
(-88.322 0 3.00474506681e-14)
(-88.322 0 1.48494143453e-13)
(-88.322 0 -4.13898502423e-13)
(-88.322 0 3.09034347713e-12)
(-88.322 0 1.80618938861e-12)
(-88.322 0 4.37149847571e-13)
(-88.322 0 3.78842882981e-12)
(-88.322 0 -6.01758889033e-13)
(-88.322 0 3.89921995334e-12)
(-88.322 0 3.483322779e-12)
(-88.322 0 -2.35615575459e-12)
(-88.322 0 6.95785943732e-12)
(-88.322 0 3.97606790498e-12)
(-88.322 0 3.77993167486e-12)
(-88.322 0 -1.97840372437e-11)
(-88.322 0 2.78205295981e-11)
(-88.322 0 1.97245120875e-11)
(-88.322 0 6.09799965508e-13)
(-88.322 0 2.07865174771e-11)
(-88.322 0 -9.20291708344e-11)
(-88.322 0 -4.65921595857e-12)
(-88.322 0 1.53783071949e-11)
(-88.322 0 -2.80245587051e-13)
(-88.322 0 -2.4466951875e-12)
(-88.322 0 1.009476432e-11)
(-88.322 0 -4.11664348364e-12)
(-88.322 0 -1.05394452492e-11)
(-88.322 0 -5.60721895043e-13)
(-88.322 0 2.30711532213e-12)
(-88.322 0 9.90980601143e-12)
(-88.322 0 1.13992574193e-12)
(-88.322 0 7.56559655812e-12)
(-88.322 0 -2.20884099788e-12)
(-88.322 0 -3.06808088225e-12)
(-88.322 0 1.05839304486e-11)
(-88.3219999999 0 4.14749008315e-12)
(-88.3220000001 0 8.11267072607e-12)
(-88.3220000001 0 -9.48006492193e-12)
(-88.3219999999 0 5.97531708764e-12)
(-88.322 0 -5.67218693776e-12)
(-88.322 0 -3.03914074155e-12)
(-88.322 0 -1.24722470829e-11)
(-88.322 0 1.57449167492e-11)
(-88.3219999999 0 -6.64117230556e-11)
(-88.322 0 -4.28109591339e-11)
(-88.322 0 -1.5247914063e-11)
(-88.322 0 -5.77914719867e-12)
(-88.322 0 3.67985100889e-12)
(-88.322 0 -6.40008318627e-12)
(-88.322 0 -8.24107728059e-12)
(-88.322 0 4.61671334085e-12)
(-88.322 0 2.49322064879e-12)
(-88.322 0 -7.72412922672e-12)
(-88.322 0 -1.64016983485e-11)
(-88.322 0 -6.10677683674e-12)
(-88.322 0 -6.82406537944e-12)
(-88.322 0 2.54773025907e-12)
(-88.322 0 -5.95879692247e-12)
(-88.322 0 -5.23958169053e-12)
(-88.322 0 1.27481026677e-12)
(-88.322 0 -7.98427414563e-13)
(-88.322 0 -2.75919983412e-12)
(-88.322 0 -4.00406587243e-12)
(-88.322 0 -1.73835178604e-12)
(-88.322 0 1.15938515265e-12)
(-88.322 0 -1.09023545176e-11)
(-88.322 0 -6.43985488478e-12)
(-88.322 0 5.38518043672e-12)
(-88.322 0 1.79233897147e-11)
(-88.322 0 -2.30940939588e-11)
(-88.322 0 -3.51909146918e-11)
(-88.322 0 -2.44741253015e-11)
(-88.322 0 9.78209745363e-13)
(-88.322 0 -1.05080596735e-11)
(-88.322 0 1.89383351834e-12)
(-88.322 0 -2.18433352211e-11)
(-88.322 0 -2.63784021417e-11)
(-88.322 0 -2.66236816501e-11)
(-88.3219999999 0 1.79247937062e-12)
(-88.322 0 -4.19316546197e-11)
(-88.3220000001 0 -3.31080525033e-11)
(-88.322 0 -7.73480377762e-11)
(-88.3220000001 0 2.68865588055e-11)
(-88.322 0 8.62760841202e-11)
(-88.3219999999 0 -4.51829723426e-11)
(-88.322 0 -5.33802102918e-11)
(-88.322 0 6.7825118039e-12)
(-88.322 0 9.99984683493e-12)
(-88.322 0 -4.36227438043e-11)
(-88.322 0 -5.98162434141e-11)
(-88.322 0 4.84750233207e-11)
(-88.322 0 -3.13042312036e-11)
(-88.322 0 1.15121578705e-11)
(-88.322 0 -5.57169487903e-11)
(-88.322 0 4.82376465691e-11)
(-88.322 0 6.78253730364e-12)
(-88.322 0 3.63656015735e-12)
(-88.322 0 6.52855278443e-12)
(-88.322 0 -2.36880420219e-11)
(-88.322 0 -6.08835089024e-11)
(-88.322 0 -6.4884133062e-11)
(-88.322 0 1.63857614783e-11)
(-88.322 0 4.42692779876e-11)
(-88.322 0 8.30307665533e-11)
(-88.322 0 -2.2989973324e-11)
(-88.322 0 -3.58727601883e-11)
(-88.3220000001 0 2.32293457365e-11)
(-88.3220000001 0 -7.8324311611e-12)
(-88.322 0 -1.411080444e-11)
(-88.322 0 4.6120005258e-12)
(-88.322 0 9.81610352587e-13)
(-88.322 0 -4.39979472432e-13)
(-88.322 0 -9.70767677663e-13)
(-88.322 0 -1.37101718271e-11)
(-88.322 0 1.45686884973e-12)
(-88.322 0 -1.24839572998e-11)
(-88.322 0 6.86155536828e-12)
(-88.322 0 3.53080443369e-12)
(-88.322 0 -7.57023779403e-12)
(-88.322 0 -3.68679936953e-11)
(-88.322 0 -3.40360136364e-11)
(-88.322 0 -4.40369520674e-11)
(-88.322 0 -5.59097200891e-11)
(-88.322 0 -2.84118774399e-11)
(-88.322 0 -4.98766641448e-12)
(-88.322 0 4.15570401214e-12)
(-88.322 0 -1.42952296063e-12)
(-88.322 0 -1.46240314129e-11)
(-88.322 0 -1.69311501225e-11)
(-88.322 0 1.59442008335e-11)
(-88.322 0 1.75284766665e-11)
(-88.322 0 5.48110256473e-11)
(-88.3220000001 0 -1.8588573339e-11)
(-88.3220000001 0 -2.36029772243e-12)
(-88.322 0 2.64333303806e-12)
(-88.3219999999 0 1.19407878862e-11)
(-88.322 0 1.88189784979e-11)
(-88.322 0 6.05788215743e-12)
(-88.322 0 6.43181493745e-12)
(-88.322 0 1.30271602113e-12)
(-88.322 0 -3.47283447975e-12)
(-88.322 0 -9.3870471208e-13)
(-88.322 0 6.7336526925e-12)
(-88.3220000001 0 -4.68223335532e-11)
(-88.3220000001 0 2.40550848837e-11)
(-88.3219999999 0 2.32792718852e-11)
(-88.3219999997 0 1.48472001958e-11)
(-88.3220000002 0 6.47592978832e-11)
(-88.3220000003 0 -1.86404084871e-11)
(-88.3219999999 0 8.28674563051e-12)
(-88.3219999999 0 9.28872443172e-13)
(-88.3220000001 0 -5.66564065447e-13)
(-88.3220000001 0 3.91643905618e-13)
(-88.3219999998 0 -6.30110503141e-12)
(-88.322 0 6.39909246001e-12)
(-88.322 0 -4.53827377228e-12)
(-88.322 0 1.54889065528e-12)
(-88.3219999999 0 9.14578735081e-12)
(-88.3219999999 0 6.43932136613e-12)
(-88.3220000001 0 8.25860981388e-12)
(-88.322 0 -1.06361727457e-11)
(-88.3220000001 0 -1.67819902569e-11)
(-88.3220000001 0 9.03753462812e-12)
(-88.322 0 -3.19185448122e-12)
(-88.322 0 9.24769609447e-12)
(-88.3219999999 0 2.23245155069e-11)
(-88.3219999998 0 1.36567764898e-11)
(-88.3220000001 0 1.5438417716e-11)
(-88.3220000002 0 -4.30315925269e-12)
(-88.3219999999 0 3.70282204503e-12)
(-88.3219999999 0 -2.1480790759e-11)
(-88.322 0 3.36047480197e-11)
(-88.322 0 2.05247768011e-11)
(-88.322 0 9.74185950048e-12)
(-88.322 0 -7.2528932128e-12)
(-88.322 0 -3.41674332069e-12)
(-88.322 0 5.52217108996e-12)
(-88.322 0 -2.54161916516e-12)
(-88.322 0 -3.40378408672e-13)
(-88.322 0 -4.5871304372e-12)
(-88.322 0 2.3685196495e-12)
(-88.322 0 8.70843990374e-12)
(-88.3220000001 0 5.26546515513e-12)
(-88.322 0 1.07708674809e-12)
(-88.322 0 -1.47198772393e-11)
(-88.322 0 4.36051194343e-13)
(-88.322 0 -8.82368604917e-12)
(-88.3219999999 0 -2.59280129393e-12)
(-88.3219999999 0 -5.18393174293e-12)
(-88.322 0 -6.41516943773e-13)
(-88.322 0 -3.1993683434e-13)
(-88.322 0 2.26533968238e-12)
(-88.322 0 -1.43397713568e-12)
(-88.3219999999 0 1.1086477733e-11)
(-88.3219999999 0 2.4093700531e-12)
(-88.3220000001 0 -4.33355109107e-12)
(-88.3220000001 0 -1.89150084682e-11)
(-88.322 0 2.02618465761e-11)
(-88.322 0 3.41868811381e-11)
(-88.322 0 2.09566395447e-11)
(-88.322 0 -5.1787771247e-13)
(-88.322 0 1.07689086112e-11)
(-88.322 0 1.42876069703e-12)
(-88.322 0 2.22121690871e-11)
(-88.322 0 2.64360244146e-11)
(-88.322 0 2.58980261799e-11)
(-88.322 0 -1.46148420952e-12)
(-88.322 0 4.49619570179e-11)
(-88.322 0 3.4367919543e-11)
(-88.322 0 7.93770970079e-11)
(-88.322 0 -2.64136002586e-11)
(-88.322 0 -8.27182577665e-11)
(-88.322 0 4.37656203821e-11)
(-88.322 0 5.23738771504e-11)
(-88.322 0 -6.40145179805e-12)
(-88.322 0 -1.10787334322e-11)
(-88.322 0 4.27372689164e-11)
(-88.322 0 5.89210504886e-11)
(-88.322 0 -4.91558175879e-11)
(-88.322 0 3.2238854545e-11)
(-88.322 0 -1.13256055926e-11)
(-88.322 0 5.49552714956e-11)
(-88.322 0 -4.82840336167e-11)
(-88.322 0 -6.68250368517e-12)
(-88.322 0 -3.94257196663e-12)
(-88.322 0 -8.24136775185e-12)
(-88.322 0 1.51257742792e-11)
(-88.322 0 5.45347461645e-11)
(-88.322 0 5.28668889416e-11)
(-88.322 0 -2.68274905747e-12)
(-88.322 0 -1.81980099263e-11)
(-88.322 0 -9.36904007583e-11)
(-88.322 0 4.29144496145e-11)
(-88.322 0 2.44396074914e-11)
(-88.322 0 4.24084973142e-12)
(-88.322 0 -2.26161947657e-11)
(-88.322 0 8.6647763419e-12)
(-88.322 0 -9.98380887669e-12)
(-88.322 0 1.14542690425e-12)
(-88.322 0 9.87744005994e-12)
(-88.322 0 -4.39223993081e-12)
(-88.322 0 1.2855809263e-11)
(-88.322 0 -1.30950563409e-12)
(-88.322 0 1.05583623904e-11)
(-88.322 0 -9.68977275627e-12)
(-88.322 0 -1.22713014691e-11)
(-88.322 0 1.33348687416e-12)
(-88.322 0 2.75125345485e-11)
(-88.322 0 3.65527504137e-11)
(-88.322 0 2.16977978249e-11)
(-88.322 0 1.8897015528e-11)
(-88.322 0 -4.93688240165e-12)
(-88.322 0 7.72566909141e-13)
(-88.322 0 -4.06873153252e-12)
(-88.322 0 1.62908518972e-12)
(-88.322 0 1.21111661745e-11)
(-88.322 0 1.70703872939e-11)
(-88.322 0 -1.91639924027e-11)
(-88.322 0 -1.76996254987e-11)
(-88.322 0 -5.35269013869e-11)
(-88.322 0 1.4804043806e-11)
(-88.322 0 1.7381493877e-12)
(-88.322 0 -2.58273529304e-12)
(-88.322 0 -1.19440994657e-11)
(-88.322 0 -1.98508178771e-11)
(-88.322 0 -1.12299717622e-11)
(-88.322 0 -6.6534951374e-12)
(-88.322 0 -2.98894557524e-13)
(-88.322 0 3.54387131234e-12)
(-88.322 0 2.22395519556e-12)
(-88.322 0 -1.58025782597e-11)
(-88.322 0 2.26949392962e-11)
(-88.322 0 -3.11094818397e-11)
(-88.322 0 -3.02012851733e-11)
(-88.322 0 -3.64492594626e-11)
(-88.322 0 1.20240745706e-11)
(-88.322 0 -2.00780370733e-11)
(-88.322 0 -6.05428757785e-11)
(-88.322 0 3.09054102959e-11)
(-88.322 0 1.91122400582e-11)
(-88.322 0 -7.72302125809e-12)
(-88.322 0 4.11446941865e-12)
(-88.322 0 -2.95503034957e-11)
(-88.322 0 -2.94908226583e-11)
(-88.322 0 -1.98914215636e-11)
(-88.322 0 -3.34630465003e-11)
(-88.322 0 -1.05582532402e-11)
(-88.322 0 -8.00621794665e-12)
(-88.322 0 1.12346317231e-11)
(-88.322 0 1.73211672196e-11)
(-88.322 0 -1.24766426368e-11)
(-88.3219999999 0 3.80023483545e-12)
(-88.3220000001 0 -2.10196139412e-11)
(-88.3220000001 0 2.45335935301e-11)
(-88.322 0 -1.19425038968e-11)
(-88.322 0 -5.11808108804e-11)
(-88.322 0 -3.82487941705e-11)
(-88.322 0 -2.44725562673e-11)
(-88.322 0 3.35463902062e-12)
(-88.322 0 7.60552294882e-13)
(-88.322 0 -1.23911109398e-12)
(-88.322 0 3.87818010691e-13)
(-88.322 0 2.28704957376e-12)
(-88.322 0 -7.37626537256e-12)
(-88.322 0 -1.5162235057e-12)
(-88.322 0 -1.34646078695e-12)
(-88.322 0 -4.36506858793e-12)
(-88.322 0 -1.78574565009e-12)
(-88.322 0 4.69972432685e-12)
(-88.322 0 1.57709619631e-13)
(-88.322 0 -2.94538053087e-13)
(-88.322 0 -2.9539192758e-12)
(-88.322 0 3.50502208357e-11)
(-88.322 0 -4.33053560035e-11)
(-88.322 0 -6.65709782797e-11)
(-88.322 0 -9.13575475365e-12)
(-88.3219999999 0 1.10553768888e-12)
(-88.322 0 4.17086064667e-13)
(-88.322 0 6.01183592199e-13)
(-88.322 0 -3.81816482602e-12)
(-88.322 0 2.6266111332e-13)
(-88.322 0 -7.36985166912e-13)
(-88.322 0 -7.0918244658e-13)
(-88.322 0 -4.44034807e-12)
(-88.322 0 -8.48347164809e-13)
(-88.322 0 3.36290272586e-12)
(-88.322 0 5.1987487886e-14)
(-88.322 0 -6.83947578818e-13)
(-88.322 0 -4.63533935215e-12)
(-88.322 0 -2.00285273891e-12)
(-88.322 0 -1.1275679538e-11)
(-88.322 0 -4.01615246937e-13)
(-88.322 0 1.50498366967e-14)
(-88.322 0 5.26832733687e-13)
(-88.322 0 -1.28450967354e-14)
(-88.322 0 -2.1612991224e-13)
(-88.3220000001 0 -2.30538585602e-13)
(-88.322 0 -4.71738228878e-13)
(-88.3219999999 0 -9.31774003661e-12)
(-88.322 0 -4.93983133898e-13)
(-88.3220000001 0 9.90696151956e-14)
(-88.3219999999 0 -2.11921231048e-13)
(-88.3219999999 0 6.05571900746e-14)
(-88.3220000001 0 1.20002337202e-12)
(-88.322 0 4.20584893173e-14)
(-88.322 0 1.03421885358e-13)
(-88.3220000001 0 1.34893652052e-13)
(-88.322 0 -1.5769118642e-12)
(-88.322 0 -4.2023015502e-13)
(-88.322 0 -2.4046438494e-13)
(-88.322 0 4.72969461962e-14)
(-88.322 0 -9.48621572393e-14)
(-88.322 0 2.77147415058e-13)
(-88.322 0 1.90634636563e-12)
(-88.322 0 3.64837444335e-12)
(-88.322 0 -5.99828906474e-13)
(-88.322 0 -2.1364244503e-12)
(-88.322 0 -3.64969243202e-12)
(-88.3220000001 0 -8.89550067104e-12)
(-88.3220000001 0 6.93800078151e-15)
(-88.322 0 -7.00009858903e-12)
(-88.3219999999 0 4.02283942469e-12)
(-88.322 0 2.53520312816e-11)
(-88.322 0 2.99670354809e-11)
(-88.322 0 2.1749055606e-11)
(-88.322 0 4.9073196238e-12)
(-88.322 0 1.70701669007e-11)
(-88.322 0 -6.46175577848e-12)
(-88.322 0 3.05819253273e-12)
(-88.322 0 1.26859050254e-11)
(-88.322 0 1.26332324318e-13)
(-88.322 0 1.47306476354e-12)
(-88.322 0 3.28806407887e-12)
(-88.322 0 8.96964329731e-12)
(-88.322 0 6.47391445219e-12)
(-88.322 0 2.55258896735e-11)
(-88.3220000001 0 2.75462689236e-11)
(-88.3220000002 0 1.37832412999e-11)
(-88.3219999999 0 3.24909122809e-11)
(-88.3219999999 0 5.18416406349e-11)
(-88.322 0 4.99119102502e-12)
(-88.322 0 -7.57057888841e-13)
(-88.322 0 -7.33098958698e-12)
(-88.322 0 -3.31671064317e-12)
(-88.322 0 -1.06195740112e-12)
(-88.322 0 2.99917389001e-12)
(-88.322 0 3.32096825376e-13)
(-88.322 0 -1.19298808642e-11)
(-88.322 0 2.04550299169e-13)
(-88.322 0 -9.97016089725e-12)
(-88.322 0 -2.64427351759e-12)
(-88.322 0 1.33173623667e-12)
(-88.322 0 6.46292942543e-12)
(-88.322 0 1.42867685838e-12)
(-88.322 0 9.41941862389e-13)
(-88.322 0 9.09489352912e-12)
(-88.322 0 -2.44946054548e-12)
(-88.322 0 -5.90046037441e-13)
(-88.322 0 1.44216942282e-11)
(-88.322 0 -2.55739453076e-11)