/*--------------------------------*- C++ -*----------------------------------*\
  =========                 |
  \\      /  F ield         | OpenFOAM: The Open Source CFD Toolbox
   \\    /   O peration     | Website:  https://openfoam.org
    \\  /    A nd           | Version:  6
     \\/     M anipulation  |
\*---------------------------------------------------------------------------*/
FoamFile
{
    version     2.0;
    format      ascii;
    class       volVectorField;
    location    "4.73e-05";
    object      U;
}
// * * * * * * * * * * * * * * * * * * * * * * * * * * * * * * * * * * * * * //

dimensions      [0 1 -1 0 0 0 0];

internalField   nonuniform List<vector> 
8192
(
(-88.322 0 -2.78987340797e-10)
(-88.3219999996 0 -7.44182590433e-11)
(-88.3220000001 0 -6.83294601856e-11)
(-88.3220000003 0 -2.55808157858e-10)
(-88.3219999995 0 -6.23816388803e-11)
(-88.3219999997 0 1.23374350112e-11)
(-88.3220000003 0 -1.93036769017e-12)
(-88.322 0 9.54190648994e-11)
(-88.322 0 -2.52609182644e-10)
(-88.322 0 -5.66977701047e-10)
(-88.3219999999 0 -6.95904559697e-10)
(-88.322 0 3.5736945525e-10)
(-88.3220000002 0 6.52050741816e-10)
(-88.322 0 -7.29976571259e-10)
(-88.3219999998 0 -6.15837407502e-10)
(-88.3219999999 0 3.48341279969e-10)
(-88.3219999998 0 2.76853534916e-10)
(-88.3219999999 0 6.25346014826e-10)
(-88.3220000002 0 -4.17991596939e-10)
(-88.322 0 -5.5001827067e-10)
(-88.3219999997 0 2.60134112754e-10)
(-88.3220000003 0 3.76324623182e-10)
(-88.3220000003 0 -5.7975252594e-10)
(-88.3219999998 0 -5.54347937898e-10)
(-88.322 0 1.6276774617e-10)
(-88.3219999999 0 1.70606556031e-10)
(-88.3219999999 0 2.1269405606e-10)
(-88.3219999999 0 1.7946733941e-10)
(-88.3220000002 0 2.93398156421e-10)
(-88.3220000002 0 -1.49138589385e-10)
(-88.3219999999 0 2.07131592456e-10)
(-88.3219999997 0 -4.40503793299e-11)
(-88.321999999 0 1.18350823434e-10)
(-88.3220000018 0 5.26844497531e-10)
(-88.3220000025 0 -8.08464987875e-10)
(-88.3219999988 0 -6.15357723209e-10)
(-88.3219999996 0 -1.62907768092e-11)
(-88.3219999996 0 -5.49812849337e-10)
(-88.3219999986 0 1.71050104997e-10)
(-88.3220000006 0 1.65164556986e-10)
(-88.3220000001 0 -4.69601872457e-11)
(-88.3219999998 0 5.52093614953e-11)
(-88.3220000002 0 -1.29728800987e-11)
(-88.322 0 -1.48430853273e-11)
(-88.322 0 -5.57779498265e-11)
(-88.322 0 -3.48067381655e-11)
(-88.322 0 -1.84349372802e-11)
(-88.322 0 -1.8274215209e-11)
(-88.322 0 2.43471298897e-11)
(-88.3219999998 0 -8.63306343795e-11)
(-88.3219999999 0 1.14169552493e-10)
(-88.3220000006 0 -5.26129882611e-11)
(-88.3219999995 0 -2.00435805944e-10)
(-88.3219999993 0 3.25384286754e-10)
(-88.3220000011 0 1.79262224635e-10)
(-88.3220000006 0 -2.12121501625e-10)
(-88.322 0 -3.47152686975e-11)
(-88.3219999998 0 -1.67104470239e-10)
(-88.3220000002 0 -3.95913122828e-11)
(-88.3219999992 0 -2.92612078786e-10)
(-88.3219999985 0 3.29994879027e-10)
(-88.3219999998 0 3.84884081717e-10)
(-88.3220000009 0 3.55801689514e-10)
(-88.3220000014 0 -1.32555706502e-11)
(-88.322 0 -3.09455406818e-10)
(-88.3219999999 0 -8.4819159472e-11)
(-88.3220000001 0 1.15261640807e-10)
(-88.3219999997 0 1.06103387751e-11)
(-88.322 0 2.30576291162e-10)
(-88.3220000002 0 -1.15720111453e-10)
(-88.3219999995 0 4.50468941286e-11)
(-88.3220000005 0 5.23550972938e-12)
(-88.3220000013 0 -5.89740708573e-12)
(-88.3220000008 0 -5.82004091521e-11)
(-88.3219999982 0 6.49052355517e-11)
(-88.3219999973 0 -2.29917569792e-10)
(-88.322000002 0 -2.35022600994e-11)
(-88.3220000024 0 -1.76655534534e-10)
(-88.321999998 0 -2.99325120813e-10)
(-88.3219999983 0 2.89989301459e-10)
(-88.3219999996 0 2.15793207959e-10)
(-88.3220000016 0 1.47917846388e-10)
(-88.3220000022 0 -3.26041625863e-10)
(-88.3219999988 0 -1.87288149175e-10)
(-88.3219999985 0 -5.17698133096e-11)
(-88.3220000014 0 -5.05162306866e-12)
(-88.3220000016 0 1.9774309052e-10)
(-88.3219999987 0 -6.79135108819e-11)
(-88.3219999986 0 4.28779458354e-10)
(-88.322 0 -2.01136235768e-10)
(-88.3220000001 0 3.1257463617e-10)
(-88.3219999999 0 2.89033079551e-10)
(-88.3220000005 0 -5.92008628623e-11)
(-88.322 0 2.15217184147e-11)
(-88.3219999998 0 6.85359826219e-11)
(-88.3220000004 0 1.77361296543e-11)
(-88.3219999998 0 -2.1933684855e-10)
(-88.3220000003 0 -4.50363471329e-10)
(-88.322 0 5.39983587889e-10)
(-88.3219999996 0 6.20510697904e-10)
(-88.3220000001 0 2.65456863979e-12)
(-88.322 0 3.0193664231e-10)
(-88.322 0 -1.71219159557e-10)
(-88.322 0 -2.06000342649e-10)
(-88.322 0 1.35735214402e-10)
(-88.322 0 -7.90327639745e-11)
(-88.322 0 6.15369642435e-11)
(-88.322 0 -1.88167907044e-10)
(-88.322 0 -3.92790674043e-10)
(-88.322 0 -3.31218364329e-10)
(-88.322 0 -3.21915980503e-10)
(-88.322 0 -3.83524574001e-10)
(-88.322 0 -3.65644247898e-10)
(-88.322 0 -9.21666413726e-11)
(-88.322 0 3.01872077802e-10)
(-88.3220000001 0 -8.59207059333e-11)
(-88.3219999998 0 5.647568731e-11)
(-88.322 0 -1.00354719267e-10)
(-88.3220000001 0 -2.76485045062e-10)
(-88.322 0 4.12235017607e-10)
(-88.322 0 -1.68566981683e-10)
(-88.3220000001 0 -1.71518264417e-10)
(-88.322 0 -3.852865314e-10)
(-88.3219999999 0 8.53142101609e-10)
(-88.322 0 3.23590373752e-10)
(-88.3220000001 0 -7.96668066983e-10)
(-88.3220000001 0 -1.06948419073e-09)
(-88.322 0 -4.39567059528e-10)
(-88.3219999994 0 6.92935483046e-11)
(-88.3219999989 0 9.35564693217e-11)
(-88.322 0 -2.84969752648e-11)
(-88.322 0 1.86787412096e-10)
(-88.3219999999 0 -1.46436485645e-10)
(-88.322 0 1.36373629598e-10)
(-88.322 0 -3.95860499258e-11)
(-88.322 0 -9.29515311508e-11)
(-88.3220000001 0 2.2416899917e-10)
(-88.3219999999 0 5.29499449144e-10)
(-88.3220000003 0 6.5407975682e-10)
(-88.3220000002 0 -2.5912165845e-10)
(-88.322 0 -5.63956585521e-10)
(-88.3220000005 0 5.33597576611e-10)
(-88.3219999989 0 5.53530782756e-10)
(-88.3219999988 0 -3.66827513797e-10)
(-88.3220000001 0 -2.83718700334e-10)
(-88.3220000009 0 -5.65188345161e-10)
(-88.3220000008 0 4.48580493107e-10)
(-88.3219999994 0 5.10441111405e-10)
(-88.3219999993 0 -2.23731466732e-10)
(-88.3219999998 0 -2.17449749882e-10)
(-88.3220000004 0 5.52748160099e-10)
(-88.3219999994 0 5.50267646607e-10)
(-88.3220000003 0 -8.57126665916e-11)
(-88.322 0 -1.57166724975e-10)
(-88.3219999989 0 -8.81356651764e-11)
(-88.3220000007 0 8.80233411513e-11)
(-88.3220000007 0 -6.7907327806e-11)
(-88.3219999999 0 4.52184519917e-11)
(-88.322 0 8.78890340874e-11)
(-88.3220000003 0 -9.49218435804e-12)
(-88.322 0 -4.62966470751e-10)
(-88.322 0 4.37468888244e-10)
(-88.3220000001 0 6.17248753003e-10)
(-88.322 0 -3.92421617924e-10)
(-88.3220000003 0 -6.82470517272e-10)
(-88.322 0 8.16417250968e-10)
(-88.3219999997 0 4.0284108292e-10)
(-88.3219999999 0 -3.63372354311e-10)
(-88.322 0 -4.37304297268e-10)
(-88.322 0 1.83131101021e-10)
(-88.3220000004 0 -2.75952099353e-10)
(-88.322000001 0 -6.31905356811e-11)
(-88.3220000003 0 -3.38036971916e-10)
(-88.3219999998 0 5.98835308432e-11)
(-88.3220000001 0 -5.90164739881e-10)
(-88.3219999999 0 -5.91608451241e-10)
(-88.3219999995 0 4.88753987531e-10)
(-88.3219999986 0 2.14132137056e-11)
(-88.322 0 -3.86960943845e-10)
(-88.322000001 0 1.74283601597e-10)
(-88.3219999995 0 -4.38966531751e-10)
(-88.322 0 4.04629803854e-10)
(-88.322 0 6.7908101361e-11)
(-88.3220000004 0 -3.42336438975e-10)
(-88.3220000012 0 -3.65915170176e-10)
(-88.3220000003 0 -3.87908107228e-10)
(-88.3219999982 0 -1.65423491468e-10)
(-88.3219999979 0 -1.84404360697e-10)
(-88.3220000019 0 -1.55069583023e-10)
(-88.3220000026 0 8.34023275737e-11)
(-88.3220000001 0 5.48400361657e-11)
(-88.3219999999 0 7.56912519012e-11)
(-88.322 0 6.20333692278e-10)
(-88.322 0 1.84783666866e-10)
(-88.322 0 -4.2974903206e-11)
(-88.322 0 1.57002687748e-10)
(-88.322 0 -1.87524516198e-10)
(-88.322 0 3.66542268849e-11)
(-88.322 0 1.30388739097e-11)
(-88.322 0 3.67785036098e-11)
(-88.322 0 2.5744787296e-11)
(-88.322 0 9.28514183984e-11)
(-88.3219999998 0 -3.16931570811e-11)
(-88.3219999997 0 1.63916333075e-10)
(-88.3220000004 0 -1.21593005662e-11)
(-88.3220000002 0 3.77807058772e-10)
(-88.3219999998 0 3.3835843723e-10)
(-88.322 0 -2.78398719452e-10)
(-88.322 0 -2.06712267401e-10)
(-88.322 0 -2.80967616946e-10)
(-88.322 0 4.84482448244e-10)
(-88.322 0 4.37995751935e-10)
(-88.322 0 -4.98715080023e-10)
(-88.3219999999 0 -5.09178797239e-10)
(-88.322 0 3.18167871569e-10)
(-88.322 0 4.98231216806e-10)
(-88.322 0 -2.00206391041e-10)
(-88.322 0 5.67765623696e-10)
(-88.3219999996 0 -1.95827573951e-10)
(-88.3219999999 0 3.86646835349e-11)
(-88.3220000006 0 -1.04015559699e-10)
(-88.3219999997 0 -2.61314704473e-10)
(-88.3219999999 0 8.93837510515e-11)
(-88.3220000015 0 -8.66977682302e-11)
(-88.3219999989 0 6.33667425751e-12)
(-88.3219999982 0 -8.32700472223e-11)
(-88.3220000016 0 4.2786934516e-11)
(-88.3220000021 0 9.26147562032e-11)
(-88.3219999978 0 -7.23091851798e-11)
(-88.3219999979 0 3.57854912901e-10)
(-88.3220000022 0 -2.18797117838e-11)
(-88.3220000016 0 3.75573236964e-11)
(-88.3219999989 0 -6.87894449138e-11)
(-88.3219999998 0 -3.94005360803e-12)
(-88.3220000004 0 -8.06924614672e-11)
(-88.3220000002 0 1.90012189571e-10)
(-88.3219999997 0 4.22735220818e-10)
(-88.3220000005 0 3.28990448201e-10)
(-88.3220000013 0 3.43878488632e-10)
(-88.3219999979 0 2.65621362835e-10)
(-88.3219999989 0 5.08693569551e-10)
(-88.3220000017 0 1.98824670975e-10)
(-88.3219999998 0 -3.58938424649e-10)
(-88.3220000003 0 1.09354106841e-10)
(-88.3219999993 0 -1.91153504531e-10)
(-88.321999999 0 2.43390465928e-10)
(-88.3220000015 0 5.58080359314e-10)
(-88.3220000008 0 -5.33560232378e-10)
(-88.3220000001 0 -1.5892588954e-10)
(-88.3219999997 0 4.28743609004e-10)
(-88.3219999996 0 5.95944148259e-11)
(-88.3219999998 0 -4.58435722417e-10)
(-88.3219999995 0 -1.02842062526e-09)
(-88.3219999998 0 8.29714031371e-10)
(-88.3220000001 0 9.52080733171e-10)
(-88.322 0 7.34101724836e-10)
(-88.3220000005 0 -3.08462531485e-10)
(-88.3220000001 0 -1.16853862493e-10)
(-88.322 0 2.21458200393e-10)
(-88.3220000004 0 -3.72409341495e-11)
(-88.322 0 -5.487293837e-11)
(-88.3219999996 0 -1.10082135575e-11)
(-88.322 0 1.79154190213e-12)
(-88.322 0 3.09589276743e-11)
(-88.322 0 1.90746203123e-11)
(-88.322 0 -5.58759148605e-12)
(-88.322 0 6.34947872552e-11)
(-88.3220000001 0 -2.54495493173e-10)
(-88.3219999997 0 -2.68571820922e-10)
(-88.3219999999 0 3.52140823865e-11)
(-88.3220000002 0 -2.52490215324e-11)
(-88.322 0 3.37852884739e-11)
(-88.3220000001 0 1.47774614978e-10)
(-88.3219999995 0 1.45545946094e-10)
(-88.3219999995 0 -2.26813495316e-11)
(-88.3220000014 0 5.04510576667e-13)
(-88.3220000012 0 2.82036496258e-11)
(-88.3219999981 0 2.54842367336e-11)
(-88.3219999984 0 7.51213361357e-11)
(-88.3220000005 0 -1.25919122401e-10)
(-88.3220000001 0 1.25880555024e-10)
(-88.3220000001 0 3.60002927884e-12)
(-88.3219999999 0 2.4902334609e-10)
(-88.3220000005 0 2.82816718171e-10)
(-88.3220000012 0 3.57194337679e-10)
(-88.3219999995 0 -2.74439579238e-11)
(-88.3219999996 0 1.49501124438e-10)
(-88.3220000004 0 3.88412489458e-10)
(-88.322 0 -3.15272551739e-11)
(-88.322 0 -5.2972019084e-10)
(-88.3219999998 0 -7.4692341596e-10)
(-88.3220000002 0 1.85934103866e-10)
(-88.3219999997 0 8.50902248022e-10)
(-88.3219999999 0 -1.06022776554e-09)
(-88.3220000003 0 -2.81963252427e-10)
(-88.322 0 1.6760131132e-10)
(-88.322 0 3.82861185427e-10)
(-88.322 0 -1.54951318216e-10)
(-88.322 0 2.39460834941e-10)
(-88.322 0 6.91313761724e-11)
(-88.322 0 3.11125219927e-10)
(-88.322 0 -4.62843864122e-11)
(-88.3220000002 0 5.8788021752e-10)
(-88.3219999997 0 5.09135205941e-10)
(-88.3219999996 0 -4.24195674594e-10)
(-88.3220000004 0 -1.24819896887e-10)
(-88.3220000001 0 2.9176691702e-10)
(-88.3220000007 0 -6.50164387247e-12)
(-88.3219999993 0 3.52672720509e-10)
(-88.3219999985 0 -4.10694779268e-10)
(-88.3220000015 0 -6.91145430471e-11)
(-88.3220000017 0 -2.35696797699e-10)
(-88.3219999992 0 1.56613586949e-10)
(-88.3219999999 0 1.1564233403e-10)
(-88.3219999998 0 -3.01913145471e-10)
(-88.3220000001 0 7.69017359667e-10)
(-88.3219999993 0 6.41021338911e-10)
(-88.3219999986 0 3.90254981827e-10)
(-88.3220000002 0 1.61986941526e-10)
(-88.3220000004 0 -1.29166776934e-11)
(-88.3220000002 0 -1.06908526029e-10)
(-88.321999999 0 -2.12222119762e-10)
(-88.322 0 4.00626877001e-10)
(-88.3220000005 0 6.14031429074e-10)
(-88.322 0 -9.90986566759e-12)
(-88.3219999999 0 4.28081334705e-10)
(-88.322 0 3.28214465176e-10)
(-88.322 0 -4.2719781257e-10)
(-88.322 0 1.62451016846e-11)
(-88.3219999999 0 9.17976243972e-11)
(-88.3220000003 0 -4.35413491822e-11)
(-88.3220000003 0 1.80031193446e-10)
(-88.3219999999 0 1.79734708097e-10)
(-88.3219999998 0 -5.13280466159e-10)
(-88.3219999998 0 4.97784297921e-10)
(-88.3219999997 0 4.03532471626e-10)
(-88.3219999998 0 5.24796003078e-10)
(-88.3220000003 0 1.16483892617e-10)
(-88.3220000003 0 -6.80242569441e-10)
(-88.322 0 -2.47927848526e-10)
(-88.3219999998 0 8.88295928567e-10)
(-88.3219999998 0 1.07901060695e-09)
(-88.3220000004 0 -6.246256235e-10)
(-88.3219999999 0 -6.15269988301e-10)
(-88.3219999998 0 -4.44470188238e-10)
(-88.3219999998 0 -7.07376367381e-11)
(-88.3219999991 0 1.14882813864e-10)
(-88.3219999996 0 -4.43569255612e-10)
(-88.3220000013 0 5.17227592421e-10)
(-88.3220000001 0 7.03312327045e-10)
(-88.3219999991 0 -1.12793561025e-10)
(-88.322000002 0 -3.60268658467e-10)
(-88.3220000007 0 9.45211750186e-11)
(-88.3219999995 0 1.62812595138e-10)
(-88.3220000002 0 1.17661482612e-10)
(-88.3219999989 0 -1.20379944957e-10)
(-88.3220000003 0 -6.75279519125e-12)
(-88.3220000001 0 -5.85070771806e-11)
(-88.3219999999 0 4.61607180114e-12)
(-88.3220000003 0 5.54878233233e-11)
(-88.3219999996 0 4.48493384754e-11)
(-88.322 0 -2.14676325141e-11)
(-88.322 0 1.49983132854e-11)
(-88.322 0 9.05824672559e-12)
(-88.322 0 7.98947948107e-12)
(-88.322 0 1.20630968965e-11)
(-88.3220000001 0 -7.6069026544e-11)
(-88.3219999998 0 2.89816892414e-10)
(-88.3220000001 0 -2.03647437689e-10)
(-88.3220000002 0 -7.4537005711e-11)
(-88.3219999995 0 -1.72902399807e-11)
(-88.3220000002 0 9.6315200845e-11)
(-88.3220000001 0 2.73026657082e-10)
(-88.3219999998 0 -4.22550887301e-10)
(-88.3220000012 0 -4.59164627835e-10)
(-88.3220000002 0 3.01017516604e-10)
(-88.3219999994 0 3.41918046119e-10)
(-88.3220000007 0 4.60680066777e-11)
(-88.3219999983 0 3.98750223254e-10)
(-88.3219999979 0 -8.86166260326e-11)
(-88.3220000002 0 4.59961169962e-10)
(-88.3220000007 0 -2.57203595281e-10)
(-88.3220000009 0 -7.68898520503e-11)
(-88.3220000009 0 -2.48622391004e-10)
(-88.3220000004 0 4.77382506483e-10)
(-88.3219999991 0 2.16642937943e-11)
(-88.3219999984 0 -2.74274556367e-10)
(-88.3220000013 0 4.79711096827e-11)
(-88.3220000004 0 2.88016865871e-11)
(-88.3219999989 0 4.99830230174e-11)
(-88.3220000018 0 -8.53320785662e-11)
(-88.3220000007 0 6.13670725205e-11)
(-88.321999999 0 -1.69071050578e-10)
(-88.3220000002 0 -1.69022507907e-10)
(-88.3219999998 0 4.06665328353e-10)
(-88.3219999997 0 -3.78110488614e-10)
(-88.3220000012 0 -3.34158686403e-10)
(-88.3219999993 0 -6.04257332452e-11)
(-88.3219999984 0 -1.20821896e-10)
(-88.3219999999 0 6.66888061096e-12)
(-88.3220000008 0 -2.4301122506e-10)
(-88.322000002 0 -1.20112321744e-10)
(-88.322 0 3.48245396223e-11)
(-88.3219999983 0 -1.91022458517e-12)
(-88.3219999985 0 -6.79751976831e-13)
(-88.3220000012 0 -3.15722964751e-11)
(-88.3220000018 0 1.38904225628e-12)
(-88.322 0 -5.5934453243e-12)
(-88.321999999 0 -7.64495652636e-11)
(-88.321999999 0 4.70083031949e-11)
(-88.3220000007 0 -3.16664948956e-10)
(-88.3219999996 0 -3.46955998125e-10)
(-88.321999999 0 -5.72951479682e-10)
(-88.3220000008 0 2.93046091036e-10)
(-88.3220000018 0 -4.41941391775e-10)
(-88.322 0 -3.72768487339e-10)
(-88.321999999 0 8.0035217701e-10)
(-88.3219999999 0 1.96609312487e-10)
(-88.3220000005 0 -1.21068702013e-10)
(-88.3220000004 0 -4.47117527933e-10)
(-88.3219999997 0 -1.39451276649e-10)
(-88.3219999999 0 6.16494999353e-10)
(-88.322 0 -1.66830617372e-10)
(-88.3219999999 0 -8.73795569888e-11)
(-88.3220000001 0 4.68549123476e-11)
(-88.322 0 8.30865209463e-11)
(-88.322 0 -1.9002520799e-10)
(-88.322 0 6.29096039533e-11)
(-88.322 0 3.43699638511e-11)
(-88.3220000001 0 9.36645762912e-12)
(-88.3219999996 0 -9.93521043838e-12)
(-88.322 0 -3.62413216492e-11)
(-88.3220000004 0 3.06007303073e-11)
(-88.322 0 -3.58491181608e-11)
(-88.3219999998 0 1.13999696244e-10)
(-88.3220000002 0 -4.12067992393e-11)
(-88.3220000003 0 6.33910646422e-11)
(-88.3219999998 0 -6.85959341225e-11)
(-88.322 0 4.68811766147e-11)
(-88.3220000002 0 3.23500493643e-10)
(-88.3219999998 0 2.16817699648e-11)
(-88.3219999998 0 9.28048792934e-11)
(-88.3220000001 0 4.73918936035e-10)
(-88.3219999999 0 -5.08676411798e-10)
(-88.3219999997 0 -4.63581861562e-10)
(-88.3219999997 0 5.31345553444e-11)
(-88.3220000002 0 2.4922186904e-10)
(-88.3220000005 0 -9.87739041457e-11)
(-88.322 0 9.19382379033e-11)
(-88.3220000005 0 2.04874654986e-10)
(-88.3219999998 0 -3.76483126587e-10)
(-88.3219999999 0 -6.40134900398e-10)
(-88.322 0 1.9319107522e-10)
(-88.3220000002 0 -4.36996614145e-10)
(-88.3219999999 0 -3.53222227033e-10)
(-88.3220000001 0 4.21748244147e-10)
(-88.3220000005 0 -2.99472895509e-11)
(-88.3219999986 0 -1.19481295358e-10)
(-88.3220000008 0 7.58454238892e-11)
(-88.3220000019 0 -1.71188874516e-10)
(-88.3219999992 0 -1.06886859235e-10)
(-88.3219999993 0 3.74615347031e-10)
(-88.3219999996 0 -4.95684465888e-10)
(-88.3219999999 0 -3.57112187756e-10)
(-88.3219999999 0 -5.09324786009e-10)
(-88.3219999998 0 8.351806399e-14)
(-88.3220000001 0 4.52770889004e-10)
(-88.322 0 2.7588899981e-11)
(-88.3219999999 0 -3.79439037289e-10)
(-88.3219999998 0 -6.97301061998e-10)
(-88.3220000003 0 1.97083893514e-10)
(-88.322 0 1.99317862864e-10)
(-88.3219999997 0 2.29601787161e-10)
(-88.3220000003 0 -2.72303678897e-10)
(-88.3219999998 0 -2.90897907158e-10)
(-88.3220000002 0 6.16914056615e-11)
(-88.322 0 -4.91776668328e-10)
(-88.322 0 -4.62588012004e-10)
(-88.3220000003 0 -9.68516376667e-11)
(-88.3219999995 0 4.11550362903e-10)
(-88.3219999997 0 -7.87561691793e-11)
(-88.3220000013 0 -9.14032507015e-11)
(-88.3220000015 0 -1.13139741895e-10)
(-88.321999999 0 -5.04073349157e-11)
(-88.3219999981 0 2.2194327301e-10)
(-88.3220000001 0 -4.63849198632e-11)
(-88.3220000013 0 8.15483724586e-11)
(-88.3219999999 0 -3.41390758906e-11)
(-88.3219999993 0 -2.27316643868e-11)
(-88.3220000005 0 3.95765989298e-11)
(-88.322 0 -6.65498833096e-12)
(-88.3219999995 0 -1.1980553939e-11)
(-88.3220000001 0 -3.97894150043e-11)
(-88.322 0 -2.36604577902e-11)
(-88.3220000002 0 4.5432028542e-11)
(-88.3219999998 0 -1.89663493164e-10)
(-88.3220000001 0 4.90927390282e-11)
(-88.322 0 1.13047009673e-10)
(-88.3219999995 0 -1.57593646978e-10)
(-88.3220000002 0 -1.77679608356e-10)
(-88.322 0 1.10311807828e-10)
(-88.3219999998 0 5.76175394117e-10)
(-88.3220000005 0 5.73320109833e-10)
(-88.3220000003 0 -2.86584449301e-10)
(-88.3219999999 0 -3.50928207853e-10)
(-88.3219999998 0 -2.24484830827e-10)
(-88.3219999996 0 -4.58496596143e-10)
(-88.3219999998 0 1.667713522e-10)
(-88.3219999992 0 -4.28799770641e-10)
(-88.3219999993 0 3.53720135809e-10)
(-88.3220000012 0 -1.75250951086e-10)
(-88.3220000004 0 1.42008645052e-10)
(-88.3220000003 0 -2.86703089975e-10)
(-88.3220000001 0 1.341602201e-11)
(-88.322 0 -4.54746315591e-11)
(-88.322 0 1.03718388114e-12)
(-88.322 0 -7.37727738311e-11)
(-88.322 0 8.78412324156e-11)
(-88.322 0 4.02364123642e-11)
(-88.322 0 -9.42631387731e-11)
(-88.3220000001 0 1.63177993786e-10)
(-88.322 0 1.5784285834e-10)
(-88.322 0 -4.71913888342e-10)
(-88.322 0 5.52769216023e-10)
(-88.322 0 5.38645108996e-10)
(-88.322 0 7.90324751028e-11)
(-88.322 0 1.20715865991e-10)
(-88.322 0 -3.40240245219e-11)
(-88.322 0 8.58149152064e-11)
(-88.322 0 -1.46529862325e-11)
(-88.322 0 2.1842916122e-12)
(-88.322 0 9.93901611069e-12)
(-88.322 0 -2.40496393237e-11)
(-88.322 0 1.4880973338e-11)
(-88.322 0 -1.33437534739e-11)
(-88.322 0 1.55819098539e-10)
(-88.322 0 -6.09766992737e-11)
(-88.322 0 -4.38151509554e-11)
(-88.322 0 7.97046588306e-11)
(-88.322 0 -2.63447181074e-11)
(-88.322 0 4.11329146215e-11)
(-88.322 0 -1.9102416239e-10)
(-88.322 0 4.62295761683e-11)
(-88.322 0 -8.74335377848e-11)
(-88.322 0 -3.01999686906e-11)
(-88.322 0 2.03065313322e-10)
(-88.3220000003 0 -1.60890233898e-10)
(-88.3219999999 0 1.62023196893e-10)
(-88.3219999997 0 -1.91614746368e-10)
(-88.3220000001 0 -7.32053025016e-10)
(-88.322 0 1.67621691168e-10)
(-88.322 0 3.08870983549e-10)
(-88.322 0 -2.57870071583e-11)
(-88.322 0 -8.32506322253e-11)
(-88.322 0 1.95086884827e-10)
(-88.322 0 -9.01332659087e-11)
(-88.322 0 -3.24130965621e-11)
(-88.322 0 -2.42969216442e-11)
(-88.322 0 -6.05720063675e-11)
(-88.322 0 1.43792823933e-10)
(-88.3219999998 0 -1.38024818457e-11)
(-88.3220000003 0 1.98852986325e-10)
(-88.3220000003 0 -5.31257036394e-11)
(-88.3219999996 0 -7.5938899086e-11)
(-88.3219999988 0 -1.67881828183e-10)
(-88.3219999989 0 6.77635846133e-11)
(-88.3220000018 0 1.2952725053e-10)
(-88.3220000021 0 -2.42439424233e-10)
(-88.3219999996 0 -1.05462321146e-10)
(-88.322 0 -5.11197222418e-11)
(-88.3219999993 0 -1.10819796533e-10)
(-88.3219999998 0 5.11294104513e-11)
(-88.3219999993 0 5.82287552718e-11)
(-88.3219999992 0 -1.01348407875e-09)
(-88.3220000006 0 -8.49574164277e-10)
(-88.322 0 -2.36799595479e-10)
(-88.3219999996 0 1.31763748839e-10)
(-88.3220000001 0 1.22193075451e-10)
(-88.3219999999 0 -1.61491681993e-10)
(-88.322 0 -5.18143988148e-11)
(-88.3219999997 0 7.20481937893e-11)
(-88.3219999999 0 5.8003373845e-11)
(-88.3220000003 0 -1.29661729129e-10)
(-88.322 0 -1.43040234804e-10)
(-88.322 0 -3.46580459521e-11)
(-88.322 0 -6.81448186007e-11)
(-88.322 0 8.410010646e-12)
(-88.3219999999 0 -2.77812741048e-11)
(-88.3220000002 0 -9.24796163056e-12)
(-88.3220000001 0 -2.35784290618e-11)
(-88.3219999998 0 -3.17663707074e-11)
(-88.322 0 -4.07135597383e-11)
(-88.322 0 -3.58792796545e-11)
(-88.322 0 -5.115391533e-12)
(-88.322 0 4.9394455777e-11)
(-88.322 0 -1.68507987034e-10)
(-88.3219999999 0 -7.12360534399e-11)
(-88.3219999999 0 4.98327834211e-10)
(-88.322 0 3.46554083657e-10)
(-88.3220000001 0 -4.64016730923e-10)
(-88.3220000001 0 -3.50925962841e-10)
(-88.322 0 -1.12574321744e-10)
(-88.3219999998 0 6.86120753671e-11)
(-88.3220000002 0 -1.66073395757e-10)
(-88.3220000003 0 1.26417422707e-10)
(-88.322 0 -1.49313855909e-10)
(-88.3220000001 0 -4.03901974977e-10)
(-88.3219999997 0 -3.14019022095e-10)
(-88.3219999991 0 2.5045352574e-10)
(-88.3220000015 0 -4.22673523568e-10)
(-88.3220000016 0 -4.61738955548e-10)
(-88.3219999991 0 -4.09758086116e-10)
(-88.3219999999 0 4.42945663201e-10)
(-88.3219999994 0 3.35568577104e-10)
(-88.3219999991 0 -3.70416149113e-10)
(-88.3220000003 0 -2.44244846746e-10)
(-88.322 0 5.22382822836e-10)
(-88.322 0 1.15913698085e-10)
(-88.322 0 -3.44703527628e-10)
(-88.322 0 -5.57670703744e-10)
(-88.322 0 2.39038006728e-10)
(-88.3220000001 0 -2.39762770649e-10)
(-88.3219999999 0 -8.60369396058e-11)
(-88.3219999997 0 -5.11488850678e-10)
(-88.322 0 4.23915317504e-10)
(-88.3220000001 0 -1.24376480312e-10)
(-88.322 0 6.43261223263e-11)
(-88.3220000006 0 2.76618317269e-10)
(-88.3219999998 0 -4.00232476018e-10)
(-88.3219999993 0 -9.36692882771e-10)
(-88.3220000011 0 -1.12057523517e-09)
(-88.3220000007 0 -4.1388326016e-10)
(-88.3219999995 0 9.8879686281e-10)
(-88.3219999998 0 5.72076153316e-10)
(-88.3219999993 0 -7.54278875799e-11)
(-88.3219999994 0 -6.91939934783e-10)
(-88.3220000013 0 7.39168639428e-10)
(-88.3220000011 0 -3.06232287042e-11)
(-88.3219999996 0 -1.79656205766e-10)
(-88.3219999995 0 -2.89919914348e-11)
(-88.322 0 1.07194811473e-10)
(-88.3220000007 0 5.42626712229e-11)
(-88.3220000004 0 2.41098711239e-10)
(-88.3219999996 0 -2.2532671169e-10)
(-88.3219999998 0 1.79236274646e-10)
(-88.3220000005 0 -2.64350118865e-10)
(-88.3220000003 0 2.18226812932e-10)
(-88.3219999998 0 2.56386395444e-10)
(-88.322 0 -2.16290989143e-10)
(-88.3219999998 0 -4.12436581518e-10)
(-88.322 0 -1.3738838029e-10)
(-88.322 0 -4.62498751887e-10)
(-88.322 0 -4.46183590735e-10)
(-88.322 0 -1.53908223004e-10)
(-88.322 0 7.49466362524e-11)
(-88.322 0 3.68198534697e-11)
(-88.322 0 9.90655086074e-11)
(-88.3219999999 0 -3.48338314189e-10)
(-88.3220000004 0 -7.07669789648e-10)
(-88.3220000002 0 3.23224439518e-10)
(-88.3219999986 0 3.18667674573e-10)
(-88.3219999992 0 7.60231808627e-10)
(-88.322000002 0 -4.67248898243e-10)
(-88.3220000014 0 -4.42527499185e-10)
(-88.3219999993 0 3.00487988142e-10)
(-88.3219999992 0 2.89003372255e-10)
(-88.3220000001 0 2.85959570141e-10)
(-88.322 0 1.04103721068e-10)
(-88.3220000001 0 3.15120343575e-10)
(-88.322000001 0 1.03301803859e-10)
(-88.3220000002 0 3.6274093903e-11)
(-88.3219999987 0 9.53863511727e-11)
(-88.3220000002 0 -1.35681932544e-10)
(-88.3220000014 0 -3.87783102207e-10)
(-88.3220000004 0 5.332026279e-10)
(-88.321999998 0 7.79750403686e-10)
(-88.3219999981 0 4.89468857832e-10)
(-88.3220000016 0 7.32989865235e-10)
(-88.3220000011 0 -4.93502209269e-10)
(-88.3219999983 0 -3.76541932762e-11)
(-88.3219999993 0 2.4302215523e-11)
(-88.3220000018 0 -6.18998833918e-11)
(-88.3220000013 0 5.70653932881e-11)
(-88.3219999988 0 -9.48967635929e-11)
(-88.3219999994 0 4.41724436932e-11)
(-88.3220000006 0 -1.16774609096e-10)
(-88.3220000005 0 -2.93210378272e-10)
(-88.3219999989 0 2.34900230543e-10)
(-88.321999999 0 3.29555213456e-10)
(-88.3220000011 0 4.28842354933e-10)
(-88.3219999995 0 -3.37675153021e-10)
(-88.3220000004 0 -3.42131967621e-10)
(-88.3220000011 0 6.90463105091e-10)
(-88.3220000003 0 9.95112867785e-11)
(-88.3220000008 0 1.1281703368e-10)
(-88.321999998 0 3.49713320012e-10)
(-88.3219999976 0 5.43705886091e-10)
(-88.3220000021 0 6.41974018237e-10)
(-88.3220000017 0 -2.36999966976e-10)
(-88.3219999981 0 -3.79386504427e-10)
(-88.321999998 0 -1.89052481442e-10)
(-88.322000001 0 4.38798140467e-10)
(-88.3220000006 0 3.98024896834e-10)
(-88.3219999994 0 2.93247369181e-10)
(-88.322 0 -1.83583809831e-10)
(-88.3219999998 0 -2.11999949138e-10)
(-88.3220000004 0 1.32383272991e-10)
(-88.322 0 -2.55225289764e-11)
(-88.3219999999 0 -6.46353182162e-11)
(-88.3219999999 0 -1.112078127e-10)
(-88.3219999992 0 1.24160281523e-10)
(-88.3220000008 0 1.00997904609e-10)
(-88.3220000013 0 3.79356217316e-11)
(-88.3219999998 0 -3.47510183052e-11)
(-88.322 0 -3.0908677152e-10)
(-88.3220000005 0 -2.88729131152e-11)
(-88.3219999996 0 -8.36140651323e-11)
(-88.3219999991 0 -1.04025396296e-10)
(-88.3219999995 0 7.52620397777e-11)
(-88.322 0 -1.05497686187e-10)
(-88.3220000007 0 -1.07265359386e-11)
(-88.3220000016 0 4.59553396715e-14)
(-88.3219999988 0 -6.84168728408e-11)
(-88.3219999979 0 1.91911373611e-10)
(-88.321999999 0 3.83834189933e-12)
(-88.3220000015 0 -3.52036993324e-10)
(-88.3220000024 0 -2.28463314246e-10)
(-88.3219999987 0 3.26059781686e-10)
(-88.3219999986 0 4.57711126739e-10)
(-88.322 0 1.14846683171e-10)
(-88.3220000001 0 -4.76653665147e-11)
(-88.3220000001 0 1.70276419675e-10)
(-88.3220000003 0 -9.17915705131e-11)
(-88.3220000005 0 1.6045545694e-10)
(-88.3220000001 0 4.06469276056e-10)
(-88.322 0 3.12954190373e-10)
(-88.3219999999 0 -2.44553189383e-10)
(-88.3220000003 0 5.17509510734e-10)
(-88.3219999994 0 2.7753385184e-10)
(-88.321999999 0 6.2259305396e-10)
(-88.322 0 -5.01796260151e-10)
(-88.3220000013 0 -3.34742324575e-10)
(-88.3220000006 0 5.17012741824e-10)
(-88.3219999993 0 2.11581603707e-10)
(-88.322 0 -5.28249149684e-10)
(-88.322 0 -1.08448419218e-10)
(-88.3220000002 0 3.28811296027e-10)
(-88.322 0 5.82456700432e-10)
(-88.322 0 -3.9492219539e-10)
(-88.3220000008 0 2.30006541978e-10)
(-88.3219999992 0 5.66677154296e-11)
(-88.3219999984 0 5.21229708357e-10)
(-88.3219999996 0 -4.50387183268e-10)
(-88.3220000015 0 2.53411507003e-11)
(-88.3220000016 0 1.44610614688e-10)
(-88.3219999985 0 -5.37984383405e-10)
(-88.321999999 0 1.13498350929e-10)
(-88.3220000004 0 7.52231168632e-10)
(-88.3220000005 0 7.24320753468e-10)
(-88.3219999999 0 4.46914660805e-10)
(-88.3219999991 0 -4.28100879365e-10)
(-88.3220000013 0 -5.90542298898e-10)
(-88.3220000012 0 4.99767553213e-10)
(-88.3219999995 0 4.775241794e-10)
(-88.3219999997 0 -3.9003008085e-10)
(-88.322 0 -5.09932415485e-10)
(-88.3219999999 0 1.29680040487e-10)
(-88.322 0 -1.7208650443e-10)
(-88.322 0 -3.83166224337e-11)
(-88.322 0 1.16392178409e-10)
(-88.322 0 -2.03932869886e-10)
(-88.322 0 1.82079499152e-10)
(-88.322 0 -1.07670398092e-10)
(-88.322 0 1.52590406618e-10)
(-88.322 0 -2.1678522624e-10)
(-88.322 0 -1.31719755884e-10)
(-88.3220000002 0 -2.04783235389e-10)
(-88.3220000005 0 1.68937361624e-11)
(-88.3219999999 0 3.47174822542e-10)
(-88.3219999996 0 1.75406662222e-10)
(-88.3220000002 0 -1.33504628614e-10)
(-88.3219999997 0 -2.75503370644e-10)
(-88.322 0 1.32986205433e-10)
(-88.3220000001 0 1.84883517751e-10)
(-88.3219999997 0 -2.1846265904e-10)
(-88.322 0 3.88995245486e-10)
(-88.322 0 7.02530558582e-10)
(-88.3220000001 0 -3.02874267941e-10)
(-88.3219999997 0 -3.29240238721e-10)
(-88.3219999997 0 -7.81863652914e-10)
(-88.3220000005 0 3.8539634243e-10)
(-88.322 0 4.06178113849e-10)
(-88.3219999998 0 -3.25457327246e-10)
(-88.3220000002 0 -2.94176475263e-10)
(-88.322 0 -3.27410208106e-10)
(-88.322 0 -2.10999841134e-10)
(-88.322 0 -2.22566622564e-10)
(-88.322 0 -1.08968041358e-10)
(-88.322 0 1.10029636587e-10)
(-88.322 0 1.186948994e-10)
(-88.3219999997 0 -1.47303223489e-10)
(-88.3220000003 0 3.39223500654e-10)
(-88.3220000002 0 -3.0218213579e-10)
(-88.3219999996 0 -6.74554097104e-10)
(-88.322 0 -5.35757755064e-10)
(-88.3219999997 0 -1.26703395104e-10)
(-88.3220000002 0 -6.75343295774e-11)
(-88.3220000005 0 -4.59159288979e-10)
(-88.3219999999 0 2.32712578892e-10)
(-88.322 0 3.45667134206e-10)
(-88.322 0 -3.7421354209e-10)
(-88.3220000003 0 5.44162227843e-11)
(-88.3220000001 0 -5.06877891434e-10)
(-88.3219999997 0 -4.45265581842e-10)
(-88.322 0 1.30488432185e-10)
(-88.3219999999 0 -7.73367922282e-10)
(-88.322 0 -4.62269707907e-10)
(-88.3219999999 0 -4.67815972491e-10)
(-88.3220000007 0 2.22196589833e-10)
(-88.3220000006 0 2.9303665933e-10)
(-88.3219999986 0 -5.4888397774e-10)
(-88.3219999991 0 -1.09311627371e-10)
(-88.3220000014 0 -4.78421808633e-10)
(-88.3220000003 0 2.64172601589e-10)
(-88.3219999998 0 -4.50032173558e-10)
(-88.3220000003 0 -8.72027078434e-10)
(-88.3219999997 0 -1.99279949919e-10)
(-88.3219999999 0 8.51922207442e-11)