/*--------------------------------*- C++ -*----------------------------------*\
  =========                 |
  \\      /  F ield         | OpenFOAM: The Open Source CFD Toolbox
   \\    /   O peration     | Website:  https://openfoam.org
    \\  /    A nd           | Version:  6
     \\/     M anipulation  |
\*---------------------------------------------------------------------------*/
FoamFile
{
    version     2.0;
    format      ascii;
    class       volScalarField;
    location    "3.8e-05";
    object      p;
}
// * * * * * * * * * * * * * * * * * * * * * * * * * * * * * * * * * * * * * //

dimensions      [1 -1 -2 0 0 0 0];

internalField   nonuniform List<scalar> 
8192
(
6000000.0012
5999999.99941
6000000.00053
6000000.00016
6000000.00207
5999999.99821
6000000.00054
5999999.99996
6000000.00005
6000000.00007
6000000.00014
6000000.00004
6000000.00078
6000000.00018
6000000.00032
6000000.00014
6000000.00024
5999999.99976
5999999.99947
6000000.00018
5999999.99952
5999999.99895
6000000.00057
6000000.00019
5999999.99982
6000000.00003
5999999.99927
5999999.99934
5999999.9987
6000000.00013
5999999.99911
5999999.99999
5999999.99823
5999999.99627
6000000.00508
6000000.00624
5999999.99937
6000000.00485
5999999.99825
5999999.99858
6000000.00091
5999999.99937
6000000.00005
6000000.00003
6000000.0002
6000000.0001
6000000.00001
6000000.00003
5999999.9999
6000000.00029
5999999.999
5999999.99953
6000000.00223
5999999.99737
5999999.99825
6000000.00219
6000000.00045
6000000.00203
5999999.99985
6000000.0032
5999999.99736
5999999.99798
5999999.99731
5999999.99994
6000000.00013
6000000.00064
5999999.99986
6000000.00159
5999999.99837
6000000.00145
5999999.99953
5999999.99921
6000000.00188
6000000.00415
6000000.00563
5999999.99728
5999999.9939
6000000.00699
6000000.00343
5999999.99643
5999999.99772
5999999.99525
6000000.00314
6000000.00415
5999999.99928
5999999.99888
6000000.00447
6000000.00524
5999999.99853
5999999.99889
5999999.99888
5999999.99951
5999999.99816
6000000.00174
5999999.99862
6000000.00074
6000000.00071
5999999.99957
6000000.00214
5999999.99908
6000000.00001
5999999.99994
5999999.99977
6000000.00001
5999999.9998
6000000.00012
6000000.00007
6000000.00001
5999999.99998
5999999.99998
6000000.00002
6000000.00001
5999999.99997
6000000.00026
6000000.00001
6000000.0005
6000000.00041
5999999.99972
5999999.99998
5999999.99999
5999999.99952
5999999.99935
6000000.00003
5999999.99993
6000000.00015
5999999.99993
6000000.00023
6000000.00029
6000000.00519
6000000.00037
5999999.99982
6000000.00054
6000000.00028
5999999.99974
6000000.00002
5999999.99997
6000000.00002
6000000.00043
5999999.99941
6000000.00239
6000000.00082
6000000.00185
6000000.00295
5999999.99701
5999999.99832
5999999.9984
6000000.00325
6000000.00179
6000000.00015
5999999.99905
5999999.99902
6000000.00097
5999999.99594
6000000.00231
5999999.99666
5999999.99823
6000000.00006
5999999.99994
5999999.99889
5999999.99949
6000000.00001
5999999.99981
6000000.00044
6000000.00064
5999999.99986
6000000.00211
6000000.00012
6000000.00013
5999999.99959
6000000.00001
5999999.99926
6000000.00158
6000000.00314
6000000.0026
6000000.00194
6000000.00249
6000000.0029
6000000.00099
5999999.99662
6000000.0012
6000000.00124
5999999.9985
6000000.00101
5999999.99909
6000000.00179
6000000.00145
6000000.0026
5999999.9939
5999999.99408
6000000.00241
6000000.00451
6000000.0028
5999999.99988
5999999.99998
6000000.00013
6000000.00004
5999999.99993
6000000.00001
5999999.99999
6000000.00001
6000000.00015
6000000.00001
6000000.00019
5999999.99929
5999999.9987
6000000.00103
5999999.99981
6000000
6000000.00002
5999999.99998
6000000.00004
6000000.00006
6000000.00001
5999999.99956
5999999.99998
6000000.00003
5999999.9999
5999999.99996
6000000.00015
5999999.99837
5999999.99927
6000000.00119
5999999.99838
6000000.0005
6000000.00558
5999999.99599
5999999.9974
6000000.00295
6000000.0066
5999999.99234
5999999.99786
6000000.00196
6000000.00314
5999999.99745
6000000.00262
6000000.00011
6000000.00313
5999999.99913
6000000.00432
6000000.00488
5999999.99517
6000000.00032
6000000.0035
5999999.99882
6000000.00444
5999999.99534
5999999.99963
6000000.00216
6000000.00187
6000000.00271
6000000.00086
6000000.00118
6000000.0008
5999999.9992
5999999.9996
5999999.9998
5999999.9995
5999999.99906
5999999.99995
5999999.99868
6000000.00243
5999999.99911
5999999.99999
5999999.99966
6000000.00002
5999999.99993
6000000.00009
6000000.00016
6000000.00064
5999999.99903
5999999.99993
6000000.00007
5999999.9999
6000000.00086
5999999.998
5999999.9979
6000000.00384
6000000.00246
5999999.99564
5999999.99669
5999999.99861
5999999.99699
5999999.99869
5999999.99644
6000000.00061
6000000.00231
5999999.99841
6000000.00025
5999999.99946
6000000.00044
6000000.00008
5999999.99968
6000000.00071
5999999.99877
6000000.00078
5999999.99977
6000000.00001
6000000.00011
6000000.00001
6000000.00001
6000000.00002
6000000.00003
5999999.99965
6000000.00076
5999999.99832
5999999.99929
5999999.99971
5999999.99977
6000000.00301
5999999.99735
5999999.99642
6000000.00176
6000000.00273
5999999.99942
6000000.00308
5999999.9988
6000000.00375
5999999.99647
5999999.9983
5999999.99693
6000000.00316
6000000.00084
5999999.9981
6000000.00081
6000000.00018
6000000.00039
6000000.00003
5999999.99973
6000000
6000000.00018
5999999.99944
6000000.00155
6000000.00126
6000000.00067
6000000.00042
6000000.00006
5999999.9989
5999999.99847
6000000.00013
6000000.00004
6000000.00002
5999999.99963
5999999.99912
6000000.00208
5999999.99842
6000000.00052
5999999.99802
5999999.99642
5999999.99669
6000000.00183
5999999.99741
5999999.99733
6000000.00564
5999999.99978
6000000.00305
6000000.00089
5999999.99794
6000000.00293
5999999.9982
6000000.00202
5999999.99979
5999999.99994
6000000.00022
6000000.00001
6000000.0002
6000000.00004
6000000.00009
6000000.0009
5999999.99944
6000000.00164
6000000.00038
5999999.99915
6000000.00143
5999999.99915
5999999.99989
6000000.00348
6000000.00009
6000000.00135
6000000.00443
5999999.99466
5999999.99577
5999999.99642
5999999.99897
5999999.99977
6000000.00012
6000000.00085
5999999.99691
5999999.99419
6000000.00197
5999999.99602
5999999.99791
6000000.00476
5999999.99957
5999999.99877
6000000.00061
5999999.99827
5999999.99851
6000000.00414
5999999.99519
5999999.99776
5999999.99602
6000000.00008
6000000.0044
6000000.00049
5999999.99745
5999999.99401
6000000.0017
6000000.00073
6000000.00176
5999999.99941
5999999.99796
6000000.00122
5999999.99619
5999999.99598
5999999.99949
6000000.00324
5999999.99923
5999999.99918
5999999.99818
6000000.00065
6000000.00107
5999999.99964
6000000.0001
5999999.9998
5999999.9999
6000000.0002
5999999.99998
5999999.99998
6000000.00001
5999999.99986
6000000.00073
5999999.99766
6000000.00045
5999999.99997
6000000.00007
5999999.99899
6000000.00066
6000000.0002
5999999.99955
6000000.00005
6000000.00067
5999999.99951
5999999.99993
6000000.00013
5999999.9999
5999999.99868
5999999.99822
5999999.99901
5999999.99839
6000000.00085
6000000.00081
6000000.00016
5999999.99999
5999999.99997
6000000.00101
5999999.99898
6000000.00157
6000000.00187
5999999.9946
6000000.00392
6000000.00255
6000000.00023
6000000.00133
5999999.99944
6000000.00113
5999999.99976
5999999.99991
6000000.00017
6000000.00003
5999999.99997
5999999.9992
6000000.00078
5999999.99902
5999999.99952
6000000.00038
5999999.99877
6000000.001
5999999.9988
6000000.0007
6000000.00018
5999999.99887
5999999.99874
6000000.00286
6000000.00507
5999999.99945
5999999.99847
6000000.00023
6000000.00184
5999999.99939
5999999.99892
6000000.00232
5999999.99941
6000000.00006
6000000.00001
5999999.99998
6000000.00114
5999999.99907
6000000.00207
5999999.99942
5999999.99956
6000000.00025
6000000.00013
5999999.99973
6000000.00175
6000000.00062
6000000.00109
5999999.99997
5999999.99914
5999999.99988
5999999.99584
5999999.9966
6000000.00124
5999999.99973
5999999.99936
5999999.99975
5999999.99929
5999999.99984
5999999.99979
6000000.00018
5999999.99953
6000000.00006
6000000.0001
6000000.00001
6000000.00007
5999999.99977
6000000.00018
6000000.00007
5999999.99991
5999999.99989
5999999.9999
6000000.00002
6000000.00004
5999999.9999
5999999.99989
5999999.99983
6000000.00001
5999999.99988
5999999.99993
5999999.99988
5999999.99993
6000000.00001
6000000.00001
5999999.99988
5999999.99998
6000000
5999999.99998
5999999.99929
6000000.00099
5999999.99887
5999999.99985
5999999.99971
5999999.99991
6000000.00003
5999999.99998
6000000.00001
6000000.00004
6000000.0002
6000000.0001
6000000.00001
6000000.00001
5999999.99998
5999999.999
6000000.00161
6000000.00029
5999999.99974
5999999.99618
5999999.99432
6000000.00156
6000000.00272
6000000.00077
6000000.00405
5999999.99763
6000000.00323
5999999.99543
6000000.00053
5999999.99749
6000000.00074
6000000.0007
6000000.00105
6000000
6000000.00116
5999999.99878
6000000.00007
6000000.00001
6000000.00002
6000000.00018
6000000.00003
6000000.0001
5999999.99953
6000000.00021
6000000.00003
6000000
6000000.00001
5999999.99993
5999999.99993
6000000.00002
6000000.00004
5999999.9995
5999999.99922
5999999.99938
5999999.99947
5999999.99994
5999999.99971
5999999.99921
6000000.00069
6000000.00067
6000000
6000000.00121
5999999.99912
5999999.99703
6000000.00513
6000000.00293
6000000.00097
6000000.00347
5999999.99821
5999999.9998
6000000.00006
5999999.99999
6000000.00006
6000000.00006
6000000.00022
6000000.00012
6000000.00088
5999999.99939
5999999.99979
5999999.99995
6000000.00006
6000000.00027
6000000.00183
5999999.99932
5999999.99862
6000000.00386
6000000.00116
6000000.00144
6000000.00067
5999999.99835
5999999.99893
6000000.00449
6000000.00291
6000000.00275
5999999.99885
5999999.99822
6000000.00151
5999999.99988
5999999.99954
5999999.99892
6000000.00132
6000000.00066
6000000.00015
6000000.00035
5999999.99988
6000000.00018
5999999.99986
6000000.00032
6000000.00052
6000000.00033
6000000.00008
5999999.99988
5999999.99915
6000000.00251
6000000.00067
5999999.9965
5999999.99667
6000000.00419
6000000.00209
6000000.00053
5999999.99932
6000000.00132
5999999.99907
6000000.00073
6000000.00279
6000000.00214
5999999.99732
6000000.00272
6000000.00189
6000000.00414
5999999.99561
5999999.99808
6000000.00209
6000000.00071
5999999.99355
5999999.99919
6000000.00065
6000000.00465
5999999.99814
6000000.0023
6000000.0003
6000000.00452
5999999.99642
6000000.00069
6000000.00075
5999999.99776
6000000.00281
6000000.00326
6000000.0032
6000000.00682
5999999.99424
5999999.99671
6000000.00346
6000000.00372
5999999.99643
5999999.99515
6000000.00154
5999999.99818
6000000.00004
6000000.00036
5999999.9988
6000000.00291
5999999.99917
6000000.00185
5999999.99801
5999999.99769
6000000.00164
6000000.00347
6000000.00053
6000000.00352
6000000.00258
6000000.00097
5999999.99936
6000000.00022
5999999.99903
6000000.0021
6000000.0066
5999999.99716
5999999.99866
5999999.99257
6000000.00304
6000000.00319
5999999.99634
5999999.99758
5999999.99715
5999999.99822
5999999.99773
5999999.99977
5999999.99944
6000000.00015
5999999.99994
5999999.99941
6000000.00092
5999999.99707
5999999.99768
5999999.99785
6000000.00288
5999999.99984
5999999.99994
6000000.0007
5999999.99935
6000000.00065
6000000.00008
6000000.00097
6000000.00372
5999999.99739
5999999.9973
5999999.99605
6000000.00275
6000000.0029
5999999.99576
5999999.99876
5999999.99739
6000000.00061
5999999.99757
5999999.99668
6000000.00283
6000000.00157
6000000.0004
6000000.00088
5999999.99997
6000000.00015
6000000.00004
6000000.00004
6000000.00001
5999999.99998
5999999.99993
5999999.99993
6000000.00015
6000000.00001
5999999.99984
6000000.0006
6000000.00238
6000000.00039
6000000.00024
6000000.00103
5999999.99941
6000000.0012
6000000.00058
5999999.99979
5999999.99994
6000000.0001
6000000.00074
5999999.99885
5999999.9984
6000000.00196
5999999.99879
5999999.99989
5999999.99986
5999999.99993
5999999.99989
6000000.00001
5999999.99988
6000000.00007
6000000.0001
5999999.99875
6000000.00165
5999999.99983
5999999.99957
6000000.00009
5999999.99772
6000000.00036
6000000.0002
6000000.00004
6000000.00001
5999999.99978
6000000.0014
6000000.00014
5999999.99995
6000000.00031
5999999.9998
6000000.00022
5999999.99868
6000000.00255
6000000.00218
5999999.99767
5999999.9979
6000000.00225
5999999.9985
6000000.00163
5999999.9997
6000000.00001
6000000.00001
5999999.99982
6000000.00002
5999999.99988
6000000.00033
5999999.9989
6000000.00097
6000000.00025
6000000
5999999.99981
6000000.00055
5999999.99856
6000000.00318
6000000.00312
5999999.99797
6000000.00157
6000000.00305
6000000.00371
5999999.99778
5999999.99808
6000000.00122
5999999.99948
6000000.00003
6000000.00007
5999999.99994
5999999.99993
5999999.99998
6000000.00001
5999999.99991
5999999.99994
5999999.99991
5999999.99998
5999999.99963
6000000.00075
5999999.99876
5999999.99917
6000000.00145
5999999.99664
6000000.00362
6000000.00243
6000000.00146
5999999.99879
6000000.00254
6000000.00329
5999999.99826
5999999.99751
6000000.00357
5999999.99973
6000000.00455
6000000.00509
6000000.00112
6000000.00396
6000000.00004
6000000
6000000.00121
6000000.00061
6000000.0005
5999999.99994
6000000.00286
5999999.99823
6000000.00088
6000000.00245
6000000.00389
6000000.00078
5999999.99767
6000000.00045
6000000.00005
6000000
5999999.99953
6000000.00342
6000000.00124
5999999.9988
6000000.00129
6000000.00011
5999999.99989
6000000.00066
5999999.9993
6000000.00126
5999999.99298
6000000.00316
6000000.00296
5999999.99946
6000000.00008
6000000.00037
6000000.00022
6000000.00008
6000000
6000000.00001
6000000
6000000.00001
5999999.99989
6000000.00001
5999999.99988
6000000
6000000.00001
5999999.99989
6000000.00015
5999999.99997
5999999.99988
6000000.00001
5999999.99994
5999999.99953
6000000.00002
6000000.00009
6000000.0004
5999999.99893
5999999.99851
5999999.99998
6000000.00013
5999999.99976
6000000.00004
5999999.99972
6000000.0011
6000000.00065
6000000.00014
6000000.00013
5999999.99991
5999999.99932
6000000.00108
5999999.99704
6000000.00438
5999999.99691
5999999.99695
6000000.00416
6000000.00208
6000000.00363
6000000.00019
5999999.99981
5999999.99691
5999999.99651
5999999.99737
6000000.0002
5999999.99695
6000000.00212
5999999.9999
5999999.99924
6000000.00034
5999999.99851
6000000.00092
5999999.99819
6000000.00264
5999999.9967
5999999.99635
6000000.00443
5999999.99709
5999999.99691
5999999.99872
6000000.00063
6000000.00081
6000000.00036
6000000.00001
6000000.00036
5999999.99984
6000000.00121
5999999.9976
6000000.00068
6000000.00019
6000000.00011
5999999.99746
5999999.99955
5999999.99966
5999999.99902
5999999.9992
5999999.99986
5999999.99997
6000000.00018
6000000.00065
5999999.99944
5999999.99938
6000000.00148
5999999.99966
6000000.00004
5999999.99998
6000000.00001
6000000.00001
6000000.00011
6000000.00001
6000000.00001
6000000.00007
6000000.00034
5999999.99935
5999999.99991
5999999.99998
6000000.00001
6000000.00001
6000000.00025
5999999.99916
6000000.00095
6000000.00147
5999999.99699
6000000.00448
5999999.99594
5999999.99455
6000000.00265
6000000.00298
5999999.99574
5999999.99877
5999999.99932
5999999.99958
6000000.00045
5999999.99926
6000000.00146
5999999.99873
5999999.99909
5999999.99995
5999999.99944
6000000.00088
5999999.99894
6000000.00114
6000000.00223
5999999.99679
5999999.99715
5999999.99746
5999999.9998
6000000.00426
6000000.00167
5999999.99603
5999999.99386
6000000.00463
6000000.0032
5999999.99605
5999999.99803
6000000.00234
6000000.00247
5999999.9969
5999999.99932
6000000.00159
5999999.99984
6000000.00004
6000000.00001
6000000.00001
6000000.00006
6000000.00058
5999999.99957
5999999.99949
5999999.99986
6000000
6000000.0002
6000000.00003
5999999.99998
5999999.99978
5999999.99902
6000000.00027
6000000.00001
6000000.00002
6000000.00001
6000000.00001
5999999.99982
6000000.00001
6000000.00003
5999999.99995
5999999.99945
5999999.99989
6000000.00126
5999999.99862
6000000.00002
5999999.99998
5999999.997
6000000.00234
6000000.00056
6000000.00138
6000000.00086
6000000.00056
6000000.00027
6000000.00055
5999999.99893
6000000.00199
5999999.99897
6000000.0012
6000000.00217
6000000.00325
5999999.99874
5999999.99897
6000000.00388
6000000.00161
6000000.00166
6000000.00115
5999999.99738
5999999.9995
6000000.00024
6000000.00031
5999999.99893
5999999.99855
6000000.00043
5999999.99778
5999999.99975
5999999.99783
5999999.99968
6000000.00098
5999999.99971
5999999.99932
5999999.99952
6000000.00001
5999999.99988
6000000.00006
6000000.00004
6000000.00001
5999999.99994
6000000.00004
6000000.00087
5999999.99841
5999999.9998
6000000.00009
6000000.00001
6000000.00007
6000000.00002
6000000.00007
6000000.00032
5999999.99951
6000000.00085
6000000.0012
5999999.99812
6000000.00273
5999999.99661
5999999.99965
6000000.00233
6000000.00451
6000000.00268
6000000.00167
6000000.00089
5999999.99648
5999999.99855
5999999.99898
5999999.99967
6000000.00081
6000000.00455
5999999.99535
5999999.99728
5999999.99571
6000000.00393
6000000.00174
6000000.00199
5999999.99967
6000000.00046
6000000.0006
6000000.00056
6000000.00042
5999999.99976
6000000.00002
6000000.00001
6000000
6000000.00011
5999999.99961
6000000.0009
5999999.999
6000000.00083
5999999.99856
5999999.99679
6000000.00015
6000000.00079
5999999.99693
5999999.99675
6000000.003
5999999.99788
5999999.99554
6000000.00237
6000000.00419
5999999.99701
6000000.00205
5999999.99945
5999999.99954
6000000.0021
5999999.99995
6000000.00005
6000000.00001
6000000.00001
6000000.00002
6000000.00001
6000000.00002
6000000.00001
6000000.00007
6000000.00017
6000000.00022
6000000.00003
6000000.00001
6000000.00001
5999999.99983
6000000.0013
5999999.99844
6000000.00253
6000000.00322
5999999.99948
6000000.00108
6000000.00087
6000000.00166
5999999.99968
6000000.00035
5999999.99691
6000000.00034
5999999.99925
6000000.00151
6000000.00054
5999999.99973
5999999.9995
5999999.99989
5999999.99992
6000000
5999999.99981
6000000.00028
6000000.0011
5999999.99938
5999999.99993
5999999.99993
6000000.00011
6000000.00002
6000000
5999999.99995
5999999.99971
6000000.00043
5999999.99993
5999999.99788
6000000.00209
5999999.99854
6000000.00185
5999999.99976
5999999.99992
5999999.99998
5999999.99981
6000000.00119
5999999.99755
6000000.00072
6000000.00012
5999999.99995
6000000.00002
5999999.99974
5999999.99996
5999999.99994
6000000.00006
5999999.99991
5999999.99954
6000000.00013
5999999.99994
5999999.99993
6000000
6000000.00008
5999999.99994
6000000
6000000
5999999.99994
5999999.99997
6000000.00001
5999999.99993
6000000.00021
6000000.00001
6000000.00013
6000000.00004
6000000.00059
5999999.99913
6000000.00139
5999999.9981
6000000.00102
6000000.00065
6000000.00142
6000000.00191
5999999.99791
5999999.99977
5999999.99892
6000000.00021
5999999.99979
5999999.99919
6000000.00052
5999999.99901
5999999.99979
6000000.00002
5999999.99996
6000000.00175
6000000.00074
6000000.00216
5999999.99968
5999999.99976
6000000.00143
5999999.99677
6000000.00117
5999999.99798
6000000.00241
6000000.00335
5999999.9959
5999999.99813
5999999.99674
6000000.00321
6000000.00099
6000000.00424
5999999.99849
5999999.99662
6000000.00118
5999999.99575
5999999.99698
5999999.99783
5999999.99846
6000000.00043
5999999.99735
5999999.99862
5999999.99434
6000000.00023
5999999.99591
5999999.99756
5999999.9979
5999999.99712
5999999.99819
5999999.99645
6000000.00197
6000000.00002
6000000.00016
5999999.9981
6000000.00047
5999999.99982
5999999.99995
6000000.00015
5999999.99987
6000000.00013
5999999.9979
6000000.00224
5999999.99513
5999999.99396
6000000.0025
5999999.99552
5999999.99631
6000000.00361
5999999.99691
5999999.99606
6000000.00041
6000000.00001
6000000.00002
6000000.00017
6000000.00003
6000000.00001
5999999.99996
6000000.00039
5999999.99966
6000000.00034
6000000.00007
6000000.00001
6000000.00003
5999999.99993
5999999.99994
6000000.00003
6000000.00031
5999999.99953
5999999.9993
6000000.00058
5999999.99964
5999999.99994
5999999.99988
5999999.9998
5999999.99954
6000000.00036
5999999.99983
5999999.99941
5999999.99997
5999999.99966
6000000.00016
6000000.00051
5999999.99961
6000000.00013
6000000.00064
6000000.00155
5999999.99782
5999999.9989
6000000.0012
6000000.00043
6000000.00007
6000000.00053
5999999.99894
6000000.00115
6000000.0007
6000000.0005
5999999.99978
5999999.99991
5999999.99887
6000000.00124
6000000.00008
6000000.0008
5999999.99974
5999999.99955
6000000.0024
6000000.00329
5999999.99395
5999999.99601
6000000.00317
6000000.00103
5999999.99979
6000000.00037
6000000.0001
6000000.00161
5999999.99962
6000000.00016
5999999.99997
5999999.99992
6000000
6000000.00002
5999999.99999
5999999.99998
5999999.99999
6000000
6000000.00002
6000000.00011
6000000
6000000
6000000.00001
6000000
6000000.00011
6000000
6000000.00001
5999999.99994
5999999.99996
6000000.00011
6000000
6000000
6000000.00011
6000000
6000000
5999999.99993
6000000.00001
5999999.99994
6000000.00001
6000000.00012
5999999.99965
5999999.9997
5999999.99994
5999999.99988
6000000.00122
5999999.99999
6000000
5999999.99994
6000000.00004
6000000
6000000.00008
5999999.99994
6000000
6000000
5999999.99994
5999999.99998
6000000.00011
5999999.99961
6000000.00077
6000000.00045
5999999.99965
6000000.00082
5999999.99914
6000000.00125
6000000.00228
5999999.99838
6000000.00009
6000000.00377
6000000.00016
6000000.00003
6000000.00003
5999999.99988
6000000.00004
6000000.00006
6000000.00018
6000000.00004
6000000.00003
6000000.00003
5999999.99988
6000000.00015
6000000.00015
6000000.0002
6000000.00012
5999999.99989
6000000.00001
5999999.99993
6000000.00001
6000000.00002
6000000.00003
5999999.99971
5999999.99898
6000000.00231
5999999.99908
6000000.00146
5999999.99834
5999999.99913
5999999.99989
5999999.99904
5999999.99928
6000000.00111
5999999.99804
5999999.99638
6000000.00105
5999999.99629
5999999.99448
6000000.00231
5999999.99744
6000000.00004
5999999.99771
6000000.00122
6000000.00132
5999999.99883
6000000.00127
5999999.99922
5999999.9993
6000000.00078
6000000.00055
6000000.00016
5999999.99989
6000000
6000000.00004
5999999.99993
6000000.00003
6000000.00019
5999999.99991
6000000.00029
5999999.99983
5999999.9995
6000000.00023
5999999.99908
5999999.99988
5999999.99906
5999999.9994
5999999.99971
6000000
5999999.99952
6000000.00106
5999999.99992
5999999.99989
5999999.99993
6000000
5999999.99998
5999999.9999
5999999.99993
6000000.00013
5999999.99998
5999999.99998
6000000.00006
5999999.99998
5999999.99998
6000000.00002
5999999.99998
6000000.00006
5999999.99993
6000000.00006
5999999.99927
5999999.9994
6000000.00013
6000000
5999999.99998
5999999.99998
5999999.99998
5999999.99993
5999999.99998
5999999.99996
5999999.99993
5999999.99976
6000000.00042
5999999.99986
5999999.9996
5999999.99995
5999999.99988
6000000.0008
5999999.99968
5999999.99998
5999999.99998
6000000.00002
5999999.99993
5999999.99998
5999999.9999
5999999.99993
5999999.99998
5999999.99998
5999999.99989
6000000.00011
5999999.99939
6000000.00118
5999999.99979
6000000.00003
6000000.00002
5999999.99993
5999999.99998
6000000.0001
5999999.99985
5999999.9976
6000000.00181
6000000.00008
6000000.0001
6000000.00006
6000000.0001
6000000.00024
5999999.99935
6000000.00152
6000000.00405
6000000.00138
5999999.99915
6000000.00309
6000000.00159
5999999.99797
6000000.00274
6000000.0002
6000000.00159
5999999.99819
5999999.99858
5999999.99982
5999999.99943
6000000.00011
5999999.9988
6000000.00164
6000000.0007
5999999.9999
6000000.00011
5999999.99917
6000000.00085
5999999.999
6000000.00205
5999999.99752
6000000.00253
6000000.00324
5999999.99795
6000000.00255
5999999.99572
5999999.99573
6000000.00293
6000000.00117
6000000.00454
5999999.99764
5999999.99864
6000000.00234
5999999.9981
5999999.99924
5999999.99961
5999999.99973
6000000.00013
5999999.99983
6000000.0001
5999999.99981
5999999.99996
5999999.99989
5999999.99942
6000000.00046
6000000.00009
5999999.99999
6000000.00025
5999999.99981
6000000.00012
5999999.99865
5999999.99969
5999999.99996
5999999.99979
5999999.99973
5999999.99925
6000000.00118
6000000.00008
5999999.99981
6000000.00312
6000000.00178
5999999.99689
6000000.00176
5999999.99961
6000000.00315
6000000.00268
5999999.99631
5999999.99818
5999999.99898
6000000.00429
6000000.00274
5999999.9969
5999999.99836
5999999.9958
6000000.00143
5999999.99589
5999999.99656
5999999.99895
5999999.99551
6000000.00234
5999999.99754
5999999.99816
5999999.99898
6000000.00115
5999999.99828
5999999.99828
6000000.00183
6000000.00127
5999999.99797
5999999.99688
5999999.9972
5999999.99731
5999999.9981
5999999.99777
6000000.00011
5999999.99655
5999999.99406
6000000.00174
5999999.99876
5999999.99755
5999999.99783
5999999.99542
5999999.99585
6000000.00409
5999999.99711
5999999.99529
5999999.99931
5999999.99562
6000000.00106
6000000.00252
5999999.99459
5999999.99651
5999999.99714
6000000.0024
6000000.00189
5999999.99744
6000000.00431
6000000.00282
5999999.99926
6000000.00431
5999999.9957
5999999.99562
6000000.00217
6000000.00014
5999999.99995
5999999.99655
5999999.99742
6000000.00167
5999999.99731
5999999.99905
6000000.00193
5999999.99965
6000000.00224
6000000.00475
6000000.00188
6000000.00005
5999999.9959
5999999.99789
6000000.00468
6000000.00161
5999999.99513
5999999.99855
6000000.00026
6000000.00431
6000000.00098
5999999.99984
6000000.00058
6000000.00108
5999999.99984
5999999.99862
6000000.00227
6000000.0016
5999999.99852
6000000.00223
5999999.99744
5999999.99984
5999999.9982
6000000.00081
6000000.00123
5999999.99599
5999999.99971
6000000.00053
5999999.99608
5999999.99827
6000000.0016
5999999.99926
5999999.99865
6000000.00154
5999999.99946
5999999.99789
5999999.99731
5999999.99905
5999999.99742
5999999.99982
5999999.99818
6000000.00519
5999999.99875
5999999.99984
6000000.00552
5999999.99771
6000000.0013
6000000.0007
6000000.00795
5999999.99864
6000000.00106
6000000.00669
6000000.00532
5999999.99902
5999999.99675
6000000.01055
6000000.00803
6000000.00441
5999999.99998
5999999.99764
6000000.00865
6000000.00744
6000000.00194
6000000.0046
6000000.00242
5999999.99487
6000000.00714
6000000.00662
6000000.00063
5999999.99801
6000000.0084
6000000.00209
5999999.99343
6000000.00249
6000000.00149
6000000.00886
6000000.00557
5999999.99764
6000000.00085
6000000.00744
5999999.99717
5999999.99846
6000000.00699
6000000.00871
6000000.0011
6000000.00534
6000000.00629
6000000.00385
5999999.99825
6000000.00163
6000000.00644
6000000.00684
6000000.00796
6000000.00288
6000000.00241
6000000.00482
6000000.00762
6000000.00063
6000000.00174
6000000.00479
5999999.99703
6000000.00506
6000000.00362
6000000.00828
6000000.00304
6000000.00646
6000000.0051
5999999.99449
6000000.00625
6000000.00222
5999999.99855
6000000.00698
5999999.99935
5999999.99933
5999999.99882
6000000.00004
5999999.99906
5999999.99975
5999999.99835
5999999.99925
5999999.99957
5999999.99934
5999999.99844
5999999.99811
5999999.99973
5999999.99875
6000000.00063
5999999.99787
5999999.9985
5999999.99757
6000000.00017
5999999.99846
5999999.99768
5999999.99914
5999999.99972
5999999.99874
5999999.99834
5999999.99862
5999999.99874
5999999.99865
5999999.99966
5999999.99642
5999999.99822
6000000.00032
5999999.99878
5999999.9971
5999999.99956
5999999.9981
6000000.00026
5999999.99895
5999999.99859
5999999.99766
5999999.99878
6000000.00005
5999999.99838
5999999.99942
5999999.99948
5999999.99813
5999999.99823
5999999.99941
5999999.99757
5999999.99653
5999999.99953
5999999.99948
6000000.00066
6000000.00051
5999999.99864
5999999.99956
5999999.99759
5999999.99776
5999999.99884
5999999.99945
5999999.99893
6000000.00049
6000000.00234
5999999.99836
5999999.99932
5999999.99938
5999999.99975
5999999.99958
6000000.0007
5999999.99963
5999999.99952
6000000.00039
5999999.99964
5999999.99963
5999999.99964
5999999.99967
6000000.00049
5999999.9999
5999999.99972
5999999.99962
6000000.00035
6000000.00045
5999999.99985
6000000.00033
5999999.99986
6000000.00051
5999999.99963
5999999.99956
6000000.00038
5999999.99992
6000000.00051
5999999.99974
5999999.99994
5999999.99956
6000000.00034
6000000.00057
6000000.00026
6000000.00061
5999999.99964
6000000.00054
6000000.00052
5999999.9996
6000000.00018
5999999.99967
6000000.00038
5999999.99997
5999999.99947
6000000.0006
6000000.00022
6000000.00044
6000000.00046
5999999.99948
5999999.99961
5999999.99981
6000000.00023
6000000.00015
6000000.00048
6000000.00051
5999999.9998
5999999.99983
6000000.00029
6000000.00007
6000000.00042
6000000.00027
6000000.00023
6000000.00057
5999999.99966
6000000.00049
6000000.00056
6000000.00082
6000000.00085
6000000.00089
6000000.0006
6000000.00086
6000000.00072
6000000.00116
6000000.00069
6000000.00076
6000000.0007
6000000.00072
6000000.0007
6000000.00072
6000000.00081
6000000.00083
6000000.00056
6000000.00082
6000000.00091
6000000.00065
6000000.00086
6000000.00093
6000000.00055
6000000.00071
6000000.00074
6000000.00071
6000000.0006
6000000.00052
6000000.00081
6000000.00081
6000000.00073
6000000.00079
6000000.00083
6000000.00097
6000000.00061
6000000.00084
6000000.00059
6000000.00063
6000000.00048
6000000.00068
6000000.00082
6000000.00088
6000000.00093
6000000.00083
6000000.0008
6000000.00081
6000000.00064
6000000.00084
6000000.00087
6000000.001
6000000.00067
6000000.00061
6000000.00066
6000000.00078
6000000.00082
6000000.00074
6000000.00088
6000000.00092
6000000.00089
6000000.0008
6000000.00066
6000000.00098
6000000.0011
6000000.00079
5999999.99912
5999999.999
5999999.99896
5999999.99907
5999999.99903
5999999.99938
5999999.99902
5999999.999
5999999.99891
5999999.99887
5999999.99916
5999999.99925
5999999.99935
5999999.99901
5999999.99885
5999999.99899
5999999.99897
5999999.9992
5999999.99906
5999999.99909
5999999.99906
5999999.999
5999999.99932
5999999.99927
5999999.99893
5999999.99907
5999999.99941
5999999.99906
5999999.99907
5999999.99921
5999999.99902
5999999.99946
5999999.99924
5999999.99912
5999999.999
5999999.99908
5999999.99925
5999999.99881
5999999.9988
5999999.99896
5999999.99921
5999999.99916
5999999.999
5999999.99909
5999999.99912
5999999.99902
5999999.99941
5999999.99922
5999999.99895
5999999.99911
5999999.999
5999999.99894
5999999.99888
5999999.99887
5999999.999
5999999.99908
5999999.99922
5999999.99914
5999999.99918
5999999.99907
5999999.99906
5999999.99909
5999999.99903
5999999.99895
5999999.99954
5999999.99943
5999999.99941
5999999.9998
5999999.9996
5999999.99969
5999999.99969
5999999.99962
5999999.99975
5999999.99962
5999999.99946
5999999.99938