/*--------------------------------*- C++ -*----------------------------------*\
  =========                 |
  \\      /  F ield         | OpenFOAM: The Open Source CFD Toolbox
   \\    /   O peration     | Website:  https://openfoam.org
    \\  /    A nd           | Version:  6
     \\/     M anipulation  |
\*---------------------------------------------------------------------------*/
FoamFile
{
    version     2.0;
    format      ascii;
    class       volScalarField;
    location    "2.2e-05";
    object      p;
}
// * * * * * * * * * * * * * * * * * * * * * * * * * * * * * * * * * * * * * //

dimensions      [1 -1 -2 0 0 0 0];

internalField   nonuniform List<scalar> 
8192
(
6000000.00265
6000000.0002
6000000.00049
6000000.00033
6000000.00016
5999999.99994
6000000.00001
5999999.99997
6000000.00001
6000000
6000000
6000000.00002
6000000.00019
6000000.0001
6000000.00004
6000000
6000000.00001
5999999.99994
5999999.99999
6000000.00003
5999999.99997
5999999.99995
5999999.9999
6000000
5999999.99995
6000000
5999999.99995
5999999.9999
5999999.99986
6000000.00022
5999999.99962
5999999.99958
6000000.00001
5999999.99736
6000000.00177
6000000.00225
5999999.99968
6000000.00238
5999999.99871
5999999.99993
6000000.00001
5999999.99999
6000000.00001
6000000.00002
6000000.00017
6000000.00005
6000000
6000000.00001
5999999.99996
6000000.00001
6000000.00001
5999999.99995
6000000.00021
5999999.99972
5999999.99941
6000000.00077
6000000.00024
6000000.00028
6000000.00003
6000000.00053
5999999.99879
5999999.99775
5999999.99771
5999999.99927
6000000.00001
6000000.00001
6000000.00002
6000000.0002
5999999.99996
6000000.00009
5999999.99999
6000000.00014
6000000.00043
6000000.00277
6000000.00185
5999999.99858
5999999.9972
6000000.00168
6000000.00444
5999999.99851
6000000.00058
5999999.99752
6000000.00317
6000000.00171
5999999.9974
5999999.99813
6000000.00108
6000000.00157
5999999.99977
5999999.99986
5999999.99996
6000000
5999999.99996
6000000.00007
5999999.99987
6000000.00002
6000000.00007
6000000
6000000.00007
5999999.99999
6000000
5999999.99999
5999999.99999
6000000
5999999.99987
6000000.00002
6000000.00007
6000000
5999999.99999
5999999.99999
6000000
6000000
5999999.99999
6000000.00007
6000000
6000000.00011
6000000.00001
5999999.99987
6000000
6000000
5999999.99989
5999999.99996
6000000
5999999.99999
6000000.00002
6000000.00001
6000000.00002
6000000.00002
6000000.00157
6000000.0007
6000000.0002
6000000.00013
6000000
5999999.99995
6000000.00001
5999999.99997
6000000.00001
6000000.00009
6000000
6000000.00019
6000000.00019
6000000.00027
6000000.00072
5999999.99965
6000000
5999999.99973
6000000.00034
6000000.00026
6000000.00003
5999999.99966
5999999.99899
6000000.00063
5999999.99793
6000000.0013
5999999.99828
5999999.99864
5999999.99911
5999999.99964
5999999.9998
6000000.00001
6000000
5999999.99996
6000000.00015
6000000.00017
5999999.99997
6000000.00098
5999999.99992
6000000.00001
5999999.99995
6000000.00001
6000000.00011
5999999.99953
6000000.0017
6000000.00069
6000000.00123
6000000.0009
6000000.00097
6000000.00084
5999999.99867
5999999.99954
6000000.00005
5999999.99936
6000000.00072
5999999.99839
6000000.00074
6000000.00269
6000000.0028
5999999.99855
5999999.99813
6000000.00281
6000000.00213
6000000.00084
5999999.99996
5999999.99997
6000000.00007
5999999.99999
5999999.99994
6000000
5999999.99999
6000000
6000000.00009
6000000
6000000.00001
5999999.99994
5999999.99988
6000000.00007
6000000.00001
5999999.99999
6000000.00001
5999999.99997
6000000
6000000.00006
6000000
5999999.99994
5999999.99997
6000000.00001
5999999.99995
6000000
5999999.99996
6000000.00006
5999999.99895
6000000.00072
5999999.99908
5999999.99999
6000000.00111
5999999.99877
5999999.99771
6000000.00058
6000000.00253
5999999.9975
5999999.99746
6000000.00299
6000000.00195
6000000.00055
6000000.00111
6000000.00039
6000000.00057
5999999.99977
6000000.00143
6000000.00383
5999999.99878
5999999.99987
6000000.00075
5999999.99934
6000000.00176
5999999.99825
6000000.00033
6000000.0012
6000000.00075
6000000.00065
6000000.00063
6000000.00079
6000000.00049
5999999.99975
6000000.00001
5999999.99996
5999999.99977
6000000.00001
5999999.99999
5999999.99987
6000000.00011
5999999.99995
6000000.00001
5999999.9999
6000000.00001
5999999.99994
6000000.00001
6000000.00009
6000000.00009
5999999.99994
6000000.00001
6000000.00006
6000000
6000000.00001
6000000.0001
5999999.99949
6000000.00128
6000000.00404
5999999.99809
5999999.99906
5999999.99898
5999999.9991
5999999.99955
5999999.9994
5999999.9999
6000000.00001
5999999.99956
6000000.00036
6000000.0001
6000000.00001
6000000.00001
6000000
6000000.00007
6000000.00002
6000000.00001
6000000
6000000
6000000.00004
6000000
6000000
6000000.00001
6000000.00001
6000000
6000000
5999999.99995
5999999.99999
6000000.00005
5999999.99936
6000000.00099
5999999.99778
5999999.9983
6000000.00197
6000000.00146
5999999.99998
6000000.00151
5999999.99967
6000000.00189
5999999.99783
5999999.99938
5999999.99925
6000000.00071
6000000.00012
5999999.99997
6000000
6000000
6000000
6000000.00001
5999999.99987
6000000.00001
5999999.99999
5999999.99996
6000000.00019
6000000.00019
6000000.0001
6000000.00002
6000000
5999999.99995
5999999.99995
6000000.00001
6000000.00001
6000000
5999999.99995
5999999.99993
6000000.00014
5999999.99979
6000000.00009
5999999.9992
5999999.99923
5999999.99772
6000000.00085
5999999.99816
5999999.9989
6000000.00152
6000000.00014
6000000.00088
6000000.00132
5999999.99981
6000000.00033
5999999.99979
6000000.00025
6000000.00012
5999999.99997
6000000.00017
6000000.00001
6000000.00017
6000000.00001
6000000.00007
6000000.00017
5999999.99996
6000000.00013
6000000.00002
5999999.99991
6000000.00048
5999999.99959
6000000.00046
6000000.00282
6000000.00137
5999999.99984
6000000.0039
5999999.99741
5999999.99873
5999999.99837
5999999.99927
5999999.99926
5999999.9999
6000000.00039
5999999.99927
5999999.99716
6000000.00303
5999999.9975
5999999.9973
6000000.00077
6000000.00026
5999999.99973
6000000.00004
5999999.99984
5999999.99931
6000000.00091
5999999.99792
5999999.99832
5999999.99881
5999999.99921
6000000.00069
6000000.00019
5999999.99813
5999999.99818
6000000.00019
6000000.0019
6000000.00053
5999999.99704
5999999.9989
5999999.99992
5999999.99852
5999999.99926
5999999.99897
6000000.00239
5999999.99965
5999999.9998
5999999.99988
6000000.00001
6000000.00012
6000000
6000000.00001
5999999.99987
5999999.99996
6000000.00011
5999999.99999
5999999.99999
6000000.00001
6000000.00001
6000000.00002
5999999.99987
6000000.00001
5999999.99999
5999999.99999
5999999.99992
5999999.99976
6000000
5999999.99987
6000000.00001
6000000
5999999.99995
5999999.99999
6000000
6000000
5999999.99994
5999999.99979
5999999.9999
5999999.99976
5999999.99999
6000000.00009
5999999.99999
6000000
6000000
6000000.00009
5999999.99994
5999999.99951
6000000.00135
5999999.99812
6000000.00277
6000000.00398
6000000.00035
6000000.0007
6000000.0004
5999999.99998
5999999.99999
6000000
6000000.00001
6000000
6000000
5999999.99995
6000000
6000000.00001
6000000
6000000.00001
5999999.99995
5999999.99997
6000000.00013
5999999.99986
6000000.00069
5999999.99868
5999999.99948
6000000.00269
6000000.00159
6000000.00058
5999999.99665
5999999.9998
6000000.00123
6000000.0003
5999999.99997
6000000.00017
5999999.99997
6000000.00001
6000000.00001
6000000.00007
6000000.00017
5999999.99995
6000000.00013
5999999.99997
5999999.99996
6000000.00017
6000000.00001
6000000.00027
6000000.00017
6000000.00026
6000000.00008
6000000.00004
5999999.99975
5999999.99977
5999999.99785
5999999.99855
5999999.99957
5999999.99932
5999999.99987
6000000
5999999.99981
6000000.00001
5999999.99994
6000000.00001
5999999.9999
6000000.00001
6000000
6000000.00001
6000000
5999999.99986
6000000.00009
6000000
5999999.99996
5999999.99995
5999999.99995
6000000.00001
6000000.00001
5999999.99994
5999999.99995
5999999.99992
6000000.00001
5999999.99995
5999999.99994
5999999.99995
5999999.99994
5999999.99999
6000000
5999999.99995
5999999.99999
6000000
6000000
6000000.00001
6000000.00002
5999999.99987
6000000.00001
5999999.99995
6000000
6000000.00001
5999999.99999
6000000
6000000.00001
6000000.00017
6000000.00005
6000000
6000000
5999999.99996
5999999.99992
6000000.00016
5999999.99971
6000000.00019
5999999.99761
5999999.99813
6000000.00301
6000000.00152
6000000.00004
6000000.00213
5999999.99916
6000000.00184
5999999.99779
5999999.99942
5999999.99974
6000000.00051
6000000.00031
6000000.00012
5999999.99999
6000000
5999999.99994
6000000.00001
6000000
6000000.00001
6000000.00009
6000000.00001
6000000.00002
5999999.99982
6000000.00016
6000000.00001
6000000
6000000.00001
5999999.99994
6000000
6000000.00001
6000000
5999999.99995
5999999.99992
5999999.99999
5999999.99995
6000000
5999999.99995
5999999.9999
6000000
6000000.00001
5999999.9998
6000000.00019
5999999.99974
5999999.99715
6000000.00172
6000000.00169
6000000.0003
6000000.00166
5999999.99974
6000000.00001
6000000.00001
6000000.00001
6000000.00001
6000000.00002
6000000.00017
6000000.00001
6000000.00004
6000000.00001
5999999.99996
6000000.00001
6000000.00001
6000000.00001
6000000.00018
5999999.99962
5999999.99956
6000000.00116
6000000.00094
6000000.00085
6000000.00019
6000000.00004
5999999.99849
6000000.0021
6000000.0011
6000000.00065
5999999.99957
5999999.99914
6000000.00022
5999999.99978
5999999.99992
5999999.9999
6000000.00013
6000000.00013
6000000.00009
6000000.00009
5999999.99995
6000000.00009
5999999.99995
6000000.00007
6000000.00001
5999999.99999
6000000.00001
5999999.99997
5999999.99985
6000000.00037
6000000.00081
5999999.99876
5999999.99867
6000000.00187
6000000.00155
6000000.00087
5999999.99978
6000000.00039
5999999.99962
6000000.00079
6000000.00159
6000000.00179
5999999.99991
6000000.00192
6000000.00253
6000000.00285
5999999.9975
5999999.99719
6000000.0029
6000000.00301
5999999.99888
5999999.99976
6000000.00261
6000000.00228
5999999.99735
6000000.00141
5999999.99911
6000000.00333
5999999.99696
6000000.00055
5999999.9999
5999999.99943
6000000.00079
6000000.00076
6000000.00099
6000000.00271
5999999.99856
5999999.99703
6000000.00309
6000000.00128
5999999.99954
5999999.99827
6000000.00024
5999999.99936
6000000.00001
6000000
6000000.00001
6000000.0002
5999999.99996
6000000.00016
5999999.99979
5999999.99986
6000000.00025
6000000.00171
6000000.00068
6000000.0016
6000000.00154
6000000.00177
5999999.9996
5999999.99975
5999999.99971
6000000.00088
6000000.00185
5999999.99884
5999999.99786
5999999.99725
6000000.00151
6000000.00103
5999999.99926
5999999.99961
5999999.99966
5999999.99977
5999999.9999
5999999.99999
6000000
6000000.00002
5999999.99999
6000000
5999999.99988
5999999.99943
5999999.99945
5999999.99901
6000000.00012
5999999.99991
6000000
6000000.00002
5999999.99994
6000000.00011
6000000.00007
6000000.00014
6000000.00058
5999999.99957
5999999.99951
5999999.99842
6000000.00146
6000000.00169
5999999.99888
5999999.99995
5999999.99985
5999999.99999
5999999.99941
5999999.99895
6000000.00044
6000000.0001
6000000.00005
6000000.00001
5999999.99999
6000000.00002
6000000
6000000
6000000
5999999.99997
5999999.99994
5999999.99997
6000000.00009
6000000
6000000.00001
6000000.00007
6000000.00017
6000000.00007
6000000.00007
6000000.00009
6000000.00015
6000000
6000000.00001
5999999.99994
6000000
6000000.00001
5999999.99999
5999999.99995
5999999.99994
6000000.00004
5999999.99995
5999999.99999
5999999.99995
5999999.99994
5999999.99995
6000000
5999999.99995
6000000.00001
5999999.99999
5999999.99995
6000000.00001
6000000.00001
5999999.99987
5999999.99996
5999999.99968
6000000.00002
6000000.00001
6000000.00001
6000000.00001
6000000.00002
6000000.00017
6000000.00002
5999999.99999
6000000.00001
5999999.99996
6000000
6000000.00002
5999999.99989
6000000.00136
5999999.99806
5999999.99858
6000000.00284
5999999.99957
6000000.00028
6000000.00022
5999999.99994
6000000
5999999.9999
6000000.00001
5999999.99995
6000000.00001
5999999.99985
6000000.00009
6000000
6000000
5999999.99997
6000000.00006
6000000.00016
6000000.0008
6000000.00178
5999999.99988
6000000.00116
6000000.00202
6000000.00228
5999999.99949
5999999.99986
6000000.00001
5999999.99997
5999999.99999
6000000.00006
6000000
5999999.99994
5999999.99997
6000000.00001
5999999.99996
6000000
5999999.99996
5999999.99997
6000000
6000000.00001
5999999.9999
5999999.99956
6000000.00068
5999999.9991
6000000.00126
6000000.00069
6000000.00071
5999999.99792
6000000.00208
6000000.002
5999999.99825
5999999.99879
6000000.0013
6000000.00019
6000000.00193
6000000.00194
6000000.00093
6000000.00141
6000000.00054
6000000.00031
6000000.00042
5999999.99971
6000000.00051
5999999.99974
6000000.00089
5999999.99906
6000000.00048
6000000.00325
6000000.00218
6000000.00032
5999999.99998
6000000
6000000.00001
6000000.00001
5999999.99945
6000000.0005
6000000.00017
6000000
5999999.99999
6000000
6000000.00001
6000000.00007
5999999.99956
6000000.0014
5999999.99808
6000000.00271
6000000.00418
6000000.00016
6000000.00031
6000000.00026
6000000
5999999.99999
6000000
6000000.00001
6000000
6000000
5999999.99995
6000000
5999999.99995
6000000
6000000.00001
5999999.99995
6000000.00011
6000000
5999999.99995
6000000
5999999.99999
5999999.99995
6000000.00001
6000000.00001
6000000
5999999.99994
5999999.99979
6000000.00001
6000000.00001
5999999.99999
6000000.00001
6000000.00002
6000000.00017
6000000.00005
6000000
6000000.00001
5999999.99996
5999999.99998
6000000.00015
5999999.99928
6000000.00104
5999999.99787
5999999.99864
6000000.00242
6000000.00136
6000000.00104
6000000.00075
6000000.00031
5999999.9993
5999999.99937
5999999.99947
5999999.99953
5999999.99865
5999999.99983
6000000.00006
5999999.99981
6000000
5999999.99994
6000000.00001
5999999.99989
6000000.00053
5999999.99889
5999999.99765
6000000.00085
5999999.99946
5999999.99909
5999999.9997
5999999.99993
6000000.00011
6000000.00001
6000000.00001
6000000.00001
5999999.99998
6000000.00031
5999999.99982
6000000.00014
6000000.00004
6000000
5999999.99983
5999999.99995
6000000
5999999.99987
6000000
6000000
6000000.00001
6000000.00004
6000000.00013
5999999.99999
5999999.99999
6000000.00013
6000000
6000000.00001
5999999.99999
6000000
6000000.00001
6000000.00004
6000000.00001
6000000
6000000.00007
6000000.00002
5999999.99987
6000000
5999999.99999
6000000
6000000.00001
6000000
6000000
5999999.99997
6000000.00058
5999999.9995
6000000.00103
5999999.99873
5999999.99854
6000000.00267
6000000.00089
5999999.99889
5999999.99991
5999999.99997
5999999.99998
6000000.0001
6000000
6000000.00013
5999999.99992
5999999.99995
6000000.00001
5999999.99993
6000000.00007
5999999.99993
6000000.0001
6000000.00096
5999999.9992
5999999.99952
5999999.99962
5999999.99977
6000000.0005
6000000.00124
5999999.99805
5999999.99812
6000000.00101
6000000.00346
5999999.99735
5999999.99692
5999999.99991
6000000.00059
5999999.99921
5999999.99975
5999999.9999
6000000.00011
6000000.00001
6000000
6000000.00001
6000000.00001
6000000.00002
5999999.99995
5999999.99995
6000000
6000000.00001
6000000.00011
6000000.00001
6000000
5999999.99995
5999999.99995
6000000.00002
6000000
6000000.00001
6000000.00001
6000000
5999999.99992
6000000
6000000.00001
6000000
5999999.99996
6000000.00003
6000000.00017
5999999.99997
6000000.00001
6000000.00001
5999999.99975
6000000.00009
6000000.00002
6000000.00011
6000000.00009
6000000.00002
6000000
5999999.99999
5999999.99997
6000000.00001
5999999.99992
6000000.00001
6000000.0018
6000000.00105
5999999.99844
5999999.99702
6000000.00102
6000000.00105
6000000.0008
6000000.00062
5999999.99981
5999999.99999
6000000.00001
6000000
5999999.99995
5999999.99992
6000000
5999999.99979
5999999.99999
5999999.99995
5999999.99994
6000000.00011
6000000.00002
5999999.99993
6000000.00001
6000000
5999999.99995
6000000.00006
6000000.00001
6000000
5999999.99996
6000000.00001
6000000.00001
5999999.99987
6000000
6000000.00001
6000000.00001
6000000.00006
6000000.00001
6000000.00007
6000000.00001
5999999.99996
6000000.00001
6000000.00016
5999999.99961
6000000.0008
5999999.99934
5999999.99988
6000000.0026
6000000.00169
6000000.00122
6000000.00105
6000000.00066
5999999.99974
5999999.99967
5999999.99976
5999999.99981
6000000.00001
6000000.00401
5999999.9974
5999999.99824
5999999.997
6000000.00059
6000000.00066
6000000.00032
6000000.00002
6000000.00013
6000000.00006
6000000.00001
6000000.00001
5999999.99986
6000000
6000000.00001
6000000
6000000.00001
6000000.00001
6000000.00001
5999999.99985
6000000.00092
5999999.99969
6000000
5999999.99969
6000000.00032
5999999.99872
5999999.99847
6000000.00055
5999999.99764
5999999.99708
6000000.00289
6000000.0017
5999999.99906
6000000.00033
6000000.00004
5999999.99997
6000000.00017
6000000.00002
6000000.00001
6000000
6000000
6000000.00001
6000000
6000000.00001
6000000.00001
6000000.00007
6000000.00013
6000000.00013
6000000.00001
6000000
6000000
6000000.00001
6000000.0001
5999999.99968
6000000.00044
6000000.00084
6000000.00017
6000000.00073
6000000.00014
6000000.00027
5999999.99992
6000000.00008
5999999.9997
6000000.00005
6000000.00003
6000000.0006
5999999.99994
5999999.99997
5999999.99999
5999999.99998
5999999.99995
6000000
5999999.99998
6000000.00004
6000000.0001
5999999.99993
6000000
5999999.99998
6000000.00004
6000000
6000000
5999999.99999
6000000
6000000.00007
6000000.00028
5999999.99917
6000000.00025
6000000.00006
6000000.00004
6000000
6000000
5999999.99999
6000000
6000000
5999999.99985
6000000
6000000
6000000
5999999.99999
5999999.99996
6000000
6000000
5999999.99999
5999999.99999
6000000
6000000
6000000
5999999.99994
6000000
6000000.00003
6000000
6000000
6000000
6000000
6000000
5999999.99999
6000000
6000000.0001
5999999.99999
6000000.00006
6000000
6000000.00001
5999999.99966
6000000.00058
5999999.99908
6000000.00001
6000000.00028
6000000.00006
6000000.00052
5999999.9995
6000000
5999999.99993
6000000
5999999.99996
5999999.99995
6000000.00008
5999999.99978
5999999.99999
6000000.00001
6000000.00001
6000000.00014
6000000.00019
6000000.00002
5999999.99995
5999999.99985
6000000.00033
5999999.99866
6000000.001
5999999.9975
6000000.00188
6000000.00413
5999999.99862
5999999.99979
5999999.99897
6000000.00042
5999999.99995
6000000.00072
5999999.99878
5999999.99743
6000000.00275
5999999.99879
5999999.99925
5999999.99955
5999999.99937
5999999.99993
5999999.99925
5999999.99754
5999999.99719
6000000.00326
5999999.99835
5999999.99824
5999999.99902
5999999.99883
5999999.99956
5999999.99877
6000000.00039
6000000.00006
5999999.99994
6000000
5999999.99999
5999999.99994
6000000.00001
6000000.00012
6000000
5999999.99997
5999999.99993
6000000.0001
5999999.99927
5999999.99695
6000000.00296
5999999.99859
5999999.99842
6000000.00243
5999999.99805
5999999.99728
6000000.00028
6000000.00002
6000000
6000000.00013
6000000.00001
6000000
5999999.99999
6000000.00001
5999999.99991
6000000.00009
6000000.00001
5999999.99999
6000000.00001
5999999.99994
6000000
6000000.00001
6000000
5999999.99995
5999999.99981
6000000.00004
5999999.9998
6000000
5999999.99995
5999999.99993
6000000
6000000.00001
5999999.99995
5999999.99999
6000000.00002
5999999.99978
6000000.00007
6000000.00001
5999999.99996
6000000.00006
6000000.00001
6000000.00012
5999999.99978
5999999.99985
6000000.00001
6000000.00001
6000000.00006
6000000.00001
5999999.99996
6000000.00013
6000000.00017
6000000.00002
5999999.99995
6000000
5999999.99995
6000000.00013
6000000.00001
6000000.00033
5999999.99996
6000000.00024
6000000.00016
6000000.00096
5999999.99844
5999999.9974
6000000.00284
6000000.00031
6000000.00025
6000000.00002
6000000.00004
6000000.0001
6000000.00001
6000000.0001
5999999.99997
5999999.99995
6000000
6000000.00001
6000000
5999999.99999
5999999.99999
6000000
6000000.00001
6000000.00004
6000000
6000000
6000000
6000000
6000000.00004
6000000
5999999.99999
6000000
6000000
6000000.00004
6000000
6000000
6000000.00004
6000000
6000000
5999999.99996
5999999.99999
6000000
5999999.99999
6000000
5999999.99996
6000000
6000000
5999999.99999
6000000.0001
6000000
6000000
6000000
6000000
6000000
6000000.00003
6000000
6000000
6000000
6000000
6000000
5999999.99999
6000000
6000000.0001
5999999.99999
5999999.99995
6000000
5999999.99996
5999999.9999
6000000.00314
5999999.99725
5999999.99724
6000000.00079
6000000.00001
6000000.00001
6000000.00001
5999999.99995
6000000.00001
6000000
6000000.00009
6000000
6000000.00001
6000000.00001
5999999.99993
6000000.00009
6000000.00009
6000000.00009
6000000.00002
5999999.99995
6000000.00001
5999999.99994
6000000.00001
6000000.00001
6000000
5999999.99995
5999999.99993
6000000.00011
5999999.99994
6000000.00014
5999999.99979
5999999.99993
6000000
6000000.00001
5999999.99993
6000000.00007
6000000.00012
5999999.99857
6000000.00102
5999999.9989
5999999.99758
6000000.00274
5999999.99905
6000000.00004
5999999.99995
6000000.00011
6000000.00005
5999999.99995
6000000.00009
5999999.99994
5999999.99997
6000000.00013
6000000.00009
6000000.00001
5999999.99995
6000000
6000000.00001
5999999.99994
6000000.00001
6000000.00012
6000000
6000000.00008
5999999.99994
5999999.99996
6000000
5999999.99992
6000000.00001
5999999.99995
5999999.99998
5999999.99999
5999999.99999
5999999.99999
6000000.00014
5999999.99999
5999999.99999
5999999.99997
5999999.99999
5999999.99999
5999999.99995
5999999.99996
6000000.0001
5999999.99999
5999999.99999
6000000.00006
5999999.99999
5999999.99999
6000000.00001
5999999.99999
6000000.00006
5999999.99996
5999999.99999
5999999.99986
5999999.99992
6000000.00006
5999999.99999
5999999.99999
5999999.99998
5999999.99999
5999999.99996
5999999.99999
5999999.99999
5999999.99996
5999999.99995
6000000.00002
5999999.99999
5999999.99999
5999999.99998
5999999.99999
6000000.00006
5999999.99995
5999999.99999
5999999.99998
6000000
5999999.99996
5999999.99999
5999999.99995
5999999.99996
5999999.99999
5999999.99998
5999999.99995
5999999.99999
5999999.99998
6000000.00014
5999999.99999
6000000.00003
6000000
5999999.99996
5999999.99999
6000000
6000000
5999999.99986
6000000.00014
6000000.00006
6000000.00006
6000000.00001
6000000.00006
6000000.00001
6000000.00003
6000000
6000000.00157
6000000.00148
6000000.00007
6000000.00129
6000000.001
5999999.9981
6000000.00086
6000000.0002
6000000.00002
5999999.99981
5999999.99994
6000000.00001
5999999.99997
6000000.00001
5999999.99989
6000000.00002
6000000
5999999.99997
6000000.00001
5999999.99997
6000000.00002
6000000
6000000.00024
5999999.99947
6000000.00068
6000000.00207
5999999.99887
6000000.00242
5999999.99826
5999999.9981
6000000.00108
5999999.99879
6000000.00235
5999999.99785
5999999.99977
6000000.00017
5999999.99981
5999999.99994
5999999.99997
5999999.99999
6000000.00002
5999999.99994
6000000.00006
5999999.99997
5999999.99998
5999999.99998
5999999.99997
6000000.00006
5999999.99998
5999999.99999
6000000.0001
5999999.99997
6000000
5999999.99995
5999999.99969
6000000.00007
5999999.99989
6000000.00066
6000000.00034
6000000.00025
5999999.99944
5999999.99974
6000000.00061
6000000.00118
5999999.99822
5999999.99985
6000000.00005
6000000.00008
6000000.00122
5999999.99817
5999999.99956
5999999.99925
6000000.00119
6000000.00437
5999999.9983
5999999.99976
5999999.9986
6000000.00041
5999999.99828
5999999.99829
5999999.99968
5999999.99809
5999999.99987
5999999.99915
5999999.99913
5999999.99915
5999999.99999
5999999.99905
5999999.99923
6000000.0035
6000000.00051
5999999.99845
5999999.99876
5999999.99899
5999999.99913
5999999.99902
5999999.9986
5999999.99974
5999999.99901
5999999.9972
6000000.00346
5999999.99916
5999999.99952
5999999.99924
5999999.99851
5999999.99773
6000000.00017
5999999.9989
5999999.99799
5999999.99993
5999999.99885
5999999.99987
6000000.00265
5999999.99797
5999999.9985
5999999.99843
5999999.9995
6000000.00152
5999999.9968
6000000.00303
6000000.00163
5999999.9994
6000000.00143
5999999.99776
5999999.9978
6000000.00025
5999999.99951
5999999.99987
5999999.99917
5999999.99865
6000000.00112
5999999.99898
5999999.99936
6000000.00109
6000000
6000000.00045
6000000.00147
6000000.00107
6000000.00027
5999999.99957
5999999.9993
6000000.00191
6000000.00044
5999999.99816
5999999.99838
6000000.00013
6000000.00101
6000000.0008
5999999.99972
6000000.00054
6000000.00037
6000000.00083
5999999.99925
5999999.99979
6000000.00021
5999999.99957
6000000.0005
5999999.99909
6000000.0001
5999999.99938
6000000.00034
6000000.00038
5999999.99888
5999999.99952
5999999.99995
5999999.99942
5999999.99919
6000000.00019
5999999.99982
5999999.99973
6000000.00012
5999999.99969
5999999.99978
5999999.99889
5999999.99933
5999999.99915
6000000.00033
5999999.99893
6000000.00163
6000000.00029
5999999.99929
6000000.00219
5999999.99848
6000000.0002
6000000.00041
6000000.00282
6000000.00055
6000000.00168
6000000.00379
6000000.00247
5999999.99805
5999999.9995
6000000.00425
6000000.00349
6000000.00163
6000000.00184
5999999.99661
6000000.00346
6000000.00285
6000000.00158
6000000.00124
6000000.00182
5999999.9983
6000000.00263
6000000.00223
6000000.00092
5999999.99956
6000000.00517
6000000.00135
5999999.99817
6000000.00207
6000000.00035
6000000.00525
6000000.00178
6000000.0003
6000000.00017
6000000.0049
6000000.00028
5999999.99914
6000000.00471
6000000.00401
6000000.00145
6000000.00323
6000000.00279
6000000.00184
5999999.99747
6000000.00212
6000000.00183
6000000.00413
6000000.00351
6000000.00231
6000000.00141
6000000.00246
6000000.0031
6000000.00151
6000000.001
6000000.00407
5999999.99717
6000000.00349
6000000.00119
6000000.00532
6000000.002
6000000.0021
6000000.00309
5999999.99887
6000000.00236
6000000.00288
5999999.99804
6000000.00295
5999999.99931
5999999.99976
5999999.99977
5999999.99968
5999999.99983
5999999.99948
5999999.99942
5999999.99965
5999999.99933
5999999.9992
5999999.999
5999999.99974
5999999.9995
5999999.99948
6000000.00014
5999999.99952
5999999.99879
5999999.99985
5999999.99988
5999999.99953
5999999.99897
5999999.99957
5999999.99933
5999999.99958
5999999.9985
5999999.99941
5999999.99892
5999999.99922
5999999.99931
5999999.99868
5999999.99932
5999999.99971
5999999.99915
5999999.99898
5999999.99938
5999999.99868
5999999.99946
5999999.99929
5999999.99933
5999999.9987
5999999.99944
5999999.99946
5999999.99915
5999999.99975
5999999.99925
5999999.99913
5999999.99905
5999999.9992
5999999.99864
5999999.99892
5999999.99984
5999999.99977
5999999.99977
5999999.99987
5999999.99953
5999999.99971
5999999.99914
5999999.99897
5999999.99898
5999999.99923
5999999.99952
5999999.99948
6000000.00086
5999999.99921
5999999.99971
5999999.99972
5999999.99982
5999999.99977
6000000.00026
5999999.99979
5999999.99989
6000000.00018
5999999.99994
5999999.99988
5999999.99977
5999999.99987
6000000.00013
6000000
5999999.99994
5999999.99987
6000000.00009
6000000.00018
5999999.99984
6000000.00005
5999999.99986
6000000.00026
5999999.99978
5999999.99989
6000000.00018
5999999.99978
6000000.00025
5999999.99996
6000000
5999999.99964
6000000.00013
6000000.00017
5999999.99998
6000000.00033
5999999.99984
6000000.00016
6000000.00023
5999999.99981
6000000.00003
5999999.9998
6000000.0002
6000000.00009
5999999.99979
6000000.00032
6000000.00001
6000000.00007
6000000.00036
5999999.99984
5999999.99979
6000000
6000000.0001
6000000.00003
6000000.00025
6000000.00015
5999999.9999
6000000
6000000.0002
5999999.99999
6000000.00018
6000000.00007
6000000
6000000.00017
5999999.99992
6000000.00017
6000000.00039
6000000.00057
6000000.00048
6000000.00058
6000000.00038
6000000.00047
6000000.00048
6000000.00066
6000000.00054
6000000.00045
6000000.0004
6000000.00053
6000000.00045
6000000.00047
6000000.00045
6000000.0005
6000000.00043
6000000.00063
6000000.00056
6000000.00035
6000000.0004
6000000.00049
6000000.00032
6000000.00044
6000000.00051
6000000.00044
6000000.00041
6000000.00033
6000000.0006
6000000.00047
6000000.00036
6000000.00058
6000000.00057
6000000.00056
6000000.00028
6000000.00056
6000000.00025
6000000.00044
6000000.00036
6000000.00039
6000000.00057
6000000.00048
6000000.00057
6000000.00063
6000000.00039
6000000.00047
6000000.00036
6000000.00054
6000000.0005
6000000.00055
6000000.00046
6000000.00052
6000000.00032
6000000.00055
6000000.00057
6000000.00049
6000000.00064
6000000.00063
6000000.0005
6000000.00052
6000000.0004
6000000.00059
6000000.00069
6000000.00054
5999999.99932
5999999.99936
5999999.99937
5999999.9994
5999999.99944
5999999.99948
5999999.99932
5999999.9994
5999999.99934
5999999.99915
5999999.9994
5999999.99942
5999999.99971
5999999.99933
5999999.99935
5999999.99946
5999999.99926
5999999.99943
5999999.99947
5999999.99938
5999999.99937
5999999.99925
5999999.99954
5999999.99951
5999999.99925
5999999.99935
5999999.99956
5999999.99928
5999999.99941
5999999.99943
5999999.99928
5999999.99966
5999999.99954
5999999.99947
5999999.99942
5999999.99935
5999999.99951
5999999.99916
5999999.99918
5999999.99941
5999999.99941
5999999.99941
5999999.99944
5999999.9994
5999999.99942
5999999.99934
5999999.99953
5999999.99944
5999999.99941
5999999.99941
5999999.99932
5999999.99926
5999999.99928
5999999.99924
5999999.99931
5999999.9995
5999999.99953
5999999.99945
5999999.99939
5999999.99939
5999999.99941
5999999.99932
5999999.99941
5999999.99926
5999999.99973
5999999.99965
5999999.99968
5999999.99989
5999999.99977
5999999.99985
5999999.99991
5999999.9996
5999999.99989
5999999.99977
5999999.99969
5999999.99958
5999999.99973
5999999.99984
5999999.99983
5999999.9999
5999999.99985
5999999.99959
5999999.99974
5999999.99962
5999999.99986
5999999.99963
5999999.99968
5999999.99958
5999999.9997
5999999.99968
5999999.99965
5999999.99966
5999999.9998
5999999.99996
5999999.99975
5999999.99982
5999999.99972
5999999.99975
5999999.99964
5999999.99958
5999999.99993
5999999.99972
5999999.99973
5999999.99963
5999999.99983
5999999.99976
5999999.99967
5999999.99988
5999999.99968
5999999.9997
5999999.99984
5999999.99972
5999999.99977
5999999.99974
5999999.99987
5999999.99983
5999999.99964
5999999.99957
5999999.99963
5999999.99967
5999999.99984
5999999.9995
5999999.99961
5999999.99965
5999999.99957
5999999.99974
5999999.99993
5999999.99977
6000000.0002
6000000.00017
6000000.0001
6000000.00006
6000000.00006
6000000.00004
6000000.00017
5999999.99998
6000000.00005
5999999.99996
5999999.99992
6000000.00012
6000000.00004
6000000.00025
6000000.00001
6000000.00013
6000000.00024
5999999.99998
5999999.9999
6000000.00012
6000000.0001
6000000.00018
6000000.00004
6000000.00033