/*--------------------------------*- C++ -*----------------------------------*\
  =========                 |
  \\      /  F ield         | OpenFOAM: The Open Source CFD Toolbox
   \\    /   O peration     | Website:  https://openfoam.org
    \\  /    A nd           | Version:  6
     \\/     M anipulation  |
\*---------------------------------------------------------------------------*/
FoamFile
{
    version     2.0;
    format      ascii;
    class       volVectorField;
    location    "2e-05";
    object      U;
}
// * * * * * * * * * * * * * * * * * * * * * * * * * * * * * * * * * * * * * //

dimensions      [0 1 -1 0 0 0 0];

internalField   nonuniform List<vector> 
8192
(
(-88.3220000001 0 -7.10645718877e-11)
(-88.3219999999 0 -1.60814258773e-11)
(-88.322 0 -1.59813370251e-11)
(-88.322 0 -2.1269114175e-11)
(-88.322 0 1.93405310906e-12)
(-88.322 0 -2.58742705797e-12)
(-88.322 0 -8.59569969637e-13)
(-88.322 0 -2.21390349711e-12)
(-88.322 0 -1.81034382403e-11)
(-88.322 0 -8.4128616116e-11)
(-88.322 0 -9.40954572476e-11)
(-88.322 0 3.2332458558e-11)
(-88.322 0 5.51205461651e-11)
(-88.322 0 -6.70522378876e-11)
(-88.322 0 -1.58508042905e-10)
(-88.322 0 3.91845430763e-11)
(-88.322 0 -3.27400074357e-11)
(-88.322 0 8.41391295387e-11)
(-88.322 0 -1.06034779134e-10)
(-88.322 0 -7.39011364432e-11)
(-88.322 0 7.87774755809e-11)
(-88.322 0 8.88548047559e-11)
(-88.322 0 -2.25568892273e-11)
(-88.322 0 -2.78509756352e-11)
(-88.322 0 5.37733714794e-12)
(-88.322 0 2.70495105517e-12)
(-88.322 0 1.01040600592e-11)
(-88.322 0 1.18651277899e-11)
(-88.322 0 3.90078719967e-12)
(-88.322 0 -7.93851725231e-12)
(-88.322 0 2.0188723375e-11)
(-88.322 0 6.60905990246e-12)
(-88.3219999998 0 -2.35548931734e-11)
(-88.3220000001 0 9.15997228508e-11)
(-88.3220000003 0 -6.31233597546e-11)
(-88.3219999999 0 -7.2503734693e-11)
(-88.322 0 1.37154262801e-11)
(-88.322 0 -9.10507132428e-11)
(-88.3219999998 0 3.54687706422e-11)
(-88.3220000001 0 -4.45829170435e-12)
(-88.322 0 1.10354887813e-11)
(-88.322 0 -1.27270413837e-12)
(-88.322 0 -7.66712638121e-12)
(-88.322 0 -3.05649665853e-12)
(-88.322 0 -1.67922310863e-11)
(-88.322 0 -5.43768911681e-12)
(-88.322 0 -2.01169644574e-12)
(-88.322 0 -3.64589805112e-13)
(-88.322 0 2.52547669731e-12)
(-88.322 0 -8.38389382579e-12)
(-88.322 0 -1.68479300574e-12)
(-88.322 0 -1.0605147648e-11)
(-88.322 0 -4.24224356067e-12)
(-88.322 0 2.4087518019e-11)
(-88.3220000001 0 1.74824373941e-11)
(-88.322 0 -3.05822039426e-11)
(-88.322 0 5.51815972598e-12)
(-88.322 0 -1.66028053353e-11)
(-88.322 0 -7.43049222736e-12)
(-88.3219999999 0 -4.96455640003e-12)
(-88.3219999998 0 4.06817247649e-11)
(-88.3219999999 0 8.34938752356e-11)
(-88.3220000001 0 8.28086770401e-11)
(-88.3220000003 0 5.08035303885e-11)
(-88.322 0 2.89357048683e-11)
(-88.322 0 3.92761142609e-12)
(-88.322 0 9.92346305392e-12)
(-88.322 0 1.76239061225e-12)
(-88.322 0 3.8719255342e-13)
(-88.322 0 -3.72293080534e-13)
(-88.322 0 -1.98392910513e-13)
(-88.322 0 5.52764845404e-14)
(-88.3220000001 0 -5.59070433686e-13)
(-88.3220000001 0 -8.5430455454e-12)
(-88.3219999998 0 -9.72061766207e-13)
(-88.3219999997 0 -1.63196540946e-11)
(-88.3220000002 0 -8.9901609945e-13)
(-88.3220000004 0 -2.8132050952e-12)
(-88.3219999998 0 -1.35857870811e-11)
(-88.3219999998 0 8.67186592973e-12)
(-88.3219999999 0 1.24137276142e-13)
(-88.3220000001 0 1.33489190071e-12)
(-88.3220000003 0 -1.25311082106e-11)
(-88.3219999996 0 -2.56206384462e-12)
(-88.3219999997 0 6.19247762243e-13)
(-88.3220000002 0 2.34643207132e-12)
(-88.3220000002 0 7.53115411816e-12)
(-88.3219999999 0 -1.02456686128e-11)
(-88.322 0 7.03432349076e-11)
(-88.322 0 -5.89500920637e-11)
(-88.322 0 5.03326917078e-11)
(-88.322 0 4.23731932463e-11)
(-88.322 0 3.28733486143e-11)
(-88.322 0 7.77994591066e-12)
(-88.322 0 -3.9514713777e-12)
(-88.322 0 -8.48743248305e-12)
(-88.322 0 1.5228174387e-11)
(-88.322 0 -8.52222201124e-11)
(-88.322 0 4.09183939221e-11)
(-88.322 0 5.56063004089e-11)
(-88.322 0 -2.03683001083e-11)
(-88.322 0 2.51760374978e-11)
(-88.322 0 -3.00656896666e-11)
(-88.322 0 3.44959668428e-12)
(-88.322 0 4.55560475407e-12)
(-88.322 0 -1.47149911682e-12)
(-88.322 0 -9.95318004295e-13)
(-88.322 0 5.04564728344e-12)
(-88.322 0 -5.63649119003e-11)
(-88.322 0 -3.7076699512e-11)
(-88.322 0 -6.67806495111e-11)
(-88.322 0 -4.63022098872e-11)
(-88.322 0 -4.65154728188e-11)
(-88.322 0 -3.93261980187e-11)
(-88.322 0 2.58873640872e-11)
(-88.322 0 5.6484708574e-12)
(-88.322 0 9.34884172766e-13)
(-88.322 0 -1.36353253702e-12)
(-88.322 0 -3.53129564723e-11)
(-88.322 0 7.69356500631e-11)
(-88.322 0 -2.72807003688e-11)
(-88.322 0 -8.79654414862e-11)
(-88.322 0 -1.2654684577e-10)
(-88.322 0 2.806650588e-11)
(-88.322 0 3.07860193598e-11)
(-88.322 0 -1.78626771926e-10)
(-88.322 0 -1.6112788475e-10)
(-88.322 0 -7.58151173898e-11)
(-88.322 0 5.77338899816e-12)
(-88.3219999999 0 3.34552093276e-12)
(-88.322 0 -2.6130521377e-12)
(-88.322 0 1.93720939413e-11)
(-88.322 0 4.04538101125e-12)
(-88.322 0 7.83051952707e-12)
(-88.322 0 1.68967249019e-12)
(-88.322 0 5.06721837416e-12)
(-88.322 0 8.61439242102e-12)
(-88.322 0 8.09653586111e-11)
(-88.322 0 9.16328496545e-11)
(-88.322 0 -2.95044844056e-11)
(-88.322 0 -6.04968216391e-11)
(-88.322 0 5.11287207349e-11)
(-88.322 0 1.5137127989e-10)
(-88.322 0 -3.86906513086e-11)
(-88.322 0 3.14812975763e-11)
(-88.322 0 -7.45823021974e-11)
(-88.322 0 1.04080831142e-10)
(-88.322 0 6.57796387592e-11)
(-88.322 0 -7.7943597122e-11)
(-88.322 0 -7.75280319149e-11)
(-88.322 0 3.37109162558e-11)
(-88.3219999999 0 2.86248660846e-11)
(-88.3220000001 0 6.02727145409e-12)
(-88.322 0 -2.92060277662e-12)
(-88.3219999998 0 8.89413892819e-13)
(-88.322 0 2.8907031492e-12)
(-88.3220000001 0 3.84445720868e-11)
(-88.3220000001 0 -4.44528907377e-11)
(-88.322 0 3.42216443479e-11)
(-88.322 0 1.00141314911e-11)
(-88.322 0 -1.89221074655e-11)
(-88.322 0 3.91141363979e-11)
(-88.322 0 8.63134016329e-11)
(-88.322 0 5.28390946898e-12)
(-88.3220000001 0 -6.1636029248e-11)
(-88.322 0 8.72947209357e-11)
(-88.3219999999 0 1.04791262512e-10)
(-88.322 0 -1.05506644502e-10)
(-88.322 0 -7.46964841284e-11)
(-88.322 0 -1.22052113989e-11)
(-88.322 0 -2.82507068179e-11)
(-88.3220000001 0 -5.55299576533e-12)
(-88.3220000001 0 -1.77678177453e-11)
(-88.322 0 -2.75886542048e-13)
(-88.322 0 -5.14848379439e-11)
(-88.322 0 -1.35343420039e-10)
(-88.322 0 2.53633148718e-11)
(-88.3219999999 0 1.0716602894e-12)
(-88.3219999999 0 -2.53753594083e-11)
(-88.322 0 3.38915195655e-11)
(-88.322 0 -7.50350329539e-11)
(-88.322 0 2.82894071508e-11)
(-88.3219999999 0 -7.23996914042e-12)
(-88.322 0 -6.1860624417e-11)
(-88.3220000003 0 -4.26630097064e-11)
(-88.3220000002 0 -3.9602722713e-11)
(-88.3219999997 0 -2.58378443348e-11)
(-88.3219999996 0 -1.46689743845e-11)
(-88.3220000002 0 -5.624189172e-12)
(-88.3220000003 0 9.60313788951e-12)
(-88.3219999999 0 -4.61628097432e-13)
(-88.3219999999 0 5.6932626481e-12)
(-88.322 0 4.08923948797e-11)
(-88.322 0 1.05321012285e-11)
(-88.322 0 4.17401979222e-12)
(-88.322 0 1.15788274718e-11)
(-88.322 0 -9.82108167108e-12)
(-88.322 0 -3.85601218768e-13)
(-88.322 0 5.73078262345e-13)
(-88.322 0 7.16471177068e-12)
(-88.322 0 1.80813706102e-12)
(-88.322 0 1.59549219237e-11)
(-88.322 0 2.89419153316e-12)
(-88.322 0 8.22408776955e-12)
(-88.322 0 8.69687732187e-12)
(-88.322 0 1.83269304277e-11)
(-88.322 0 1.68593842418e-11)
(-88.322 0 -1.41544573691e-11)
(-88.322 0 4.11154221728e-13)
(-88.322 0 -8.72720922172e-12)
(-88.322 0 1.39906383492e-11)
(-88.322 0 9.95930967358e-12)
(-88.322 0 -3.39385185129e-11)
(-88.322 0 -1.35678736607e-10)
(-88.322 0 3.83051534062e-11)
(-88.322 0 3.56564771835e-11)
(-88.322 0 -4.28276028458e-11)
(-88.322 0 7.41538815431e-11)
(-88.322 0 -4.04913340696e-11)
(-88.3219999999 0 -4.03874282536e-11)
(-88.3220000001 0 -3.08549093208e-11)
(-88.322 0 -6.98774965524e-12)
(-88.3219999999 0 1.3005236923e-11)
(-88.3220000001 0 -1.04576589096e-11)
(-88.3219999999 0 -1.23512268919e-12)
(-88.3219999998 0 -3.54409431749e-12)
(-88.3220000001 0 1.28196138332e-11)
(-88.3220000003 0 1.62262971751e-11)
(-88.3219999998 0 -3.87780148471e-12)
(-88.3219999997 0 6.40728637499e-11)
(-88.3220000004 0 -3.49916244914e-12)
(-88.3220000003 0 -2.39655638409e-13)
(-88.3219999998 0 -5.28546608258e-12)
(-88.3219999999 0 -3.5253741171e-12)
(-88.322 0 3.79747662869e-13)
(-88.322 0 -2.36493754691e-12)
(-88.322 0 7.09421245578e-11)
(-88.3220000001 0 3.93448859445e-11)
(-88.3220000003 0 6.60346568179e-11)
(-88.3219999998 0 4.26501596226e-11)
(-88.3219999997 0 4.7213760758e-11)
(-88.3220000001 0 4.0780272341e-11)
(-88.3219999999 0 -2.40935538369e-11)
(-88.3220000001 0 7.596899142e-13)
(-88.322 0 -1.39955500142e-11)
(-88.3219999999 0 5.91209473195e-11)
(-88.3220000002 0 9.77034212755e-11)
(-88.3220000001 0 -1.13700028884e-10)
(-88.322 0 -9.65341190744e-12)
(-88.322 0 1.0244049379e-10)
(-88.322 0 8.24458949881e-11)
(-88.322 0 -5.36627496327e-12)
(-88.322 0 -1.33013339232e-10)
(-88.322 0 1.64536551803e-10)
(-88.322 0 8.77482654258e-11)
(-88.322 0 4.01628011215e-11)
(-88.322 0 -2.04002856022e-11)
(-88.322 0 -4.98464756457e-12)
(-88.322 0 6.45197253307e-12)
(-88.322 0 1.46559277363e-12)
(-88.322 0 -7.72145081253e-12)
(-88.322 0 1.31338008984e-12)
(-88.322 0 1.07660460531e-12)
(-88.322 0 1.19056164923e-11)
(-88.322 0 7.58480529975e-12)
(-88.322 0 1.67600839057e-12)
(-88.322 0 3.39296560811e-12)
(-88.322 0 -2.34910683463e-11)
(-88.322 0 -2.99249372835e-11)
(-88.322 0 -4.51665742186e-12)
(-88.322 0 1.94889904189e-12)
(-88.322 0 2.06527301e-12)
(-88.322 0 6.44489113151e-12)
(-88.322 0 2.75139333648e-12)
(-88.322 0 -6.03285298134e-13)
(-88.3220000001 0 5.15237745492e-12)
(-88.3220000003 0 1.0181842186e-12)
(-88.3219999998 0 -4.59848384589e-13)
(-88.3219999997 0 2.71768239105e-12)
(-88.322 0 -1.36702204072e-11)
(-88.322 0 6.11382210582e-12)
(-88.322 0 4.24205593524e-12)
(-88.322 0 2.51780401217e-11)
(-88.322 0 1.89379311395e-11)
(-88.322 0 3.88995998904e-11)
(-88.322 0 2.38966427344e-11)
(-88.322 0 1.30191700402e-11)
(-88.322 0 4.39010861317e-11)
(-88.322 0 -7.80438002997e-12)
(-88.322 0 -4.54645685693e-11)
(-88.322 0 -1.2616273257e-10)
(-88.322 0 -5.81423271318e-11)
(-88.322 0 6.61288468546e-11)
(-88.322 0 -1.10144959702e-10)
(-88.322 0 -1.04277192824e-10)
(-88.322 0 8.9587277503e-11)
(-88.322 0 5.56218848934e-11)
(-88.322 0 1.46406426621e-11)
(-88.322 0 1.93861796806e-11)
(-88.322 0 3.46327198121e-12)
(-88.322 0 2.93010966502e-12)
(-88.322 0 7.27570773902e-14)
(-88.322 0 4.57551025978e-11)
(-88.322 0 1.20700620249e-10)
(-88.322 0 -2.18833088475e-11)
(-88.322 0 -4.67821863215e-12)
(-88.322 0 2.28518872168e-11)
(-88.322 0 -2.02991570317e-11)
(-88.3219999999 0 6.14409881896e-11)
(-88.3219999998 0 -3.5045544126e-11)
(-88.3220000003 0 -9.41307285704e-12)
(-88.3220000002 0 -2.37241527662e-11)
(-88.3219999999 0 -4.69994187449e-11)
(-88.322 0 4.36099267478e-11)
(-88.322 0 -1.11304525141e-10)
(-88.322 0 9.83453577889e-11)
(-88.3219999999 0 3.64833266517e-11)
(-88.3219999999 0 4.22573503504e-11)
(-88.3220000001 0 2.24662903264e-11)
(-88.322 0 1.63754465647e-11)
(-88.322 0 -3.6090664843e-12)
(-88.322 0 -1.55330295805e-12)
(-88.322 0 1.62377344224e-11)
(-88.322 0 1.07648314184e-10)
(-88.322 0 -5.72972823251e-11)
(-88.322 0 8.8880892689e-11)
(-88.322 0 1.27293687106e-10)
(-88.322 0 -2.83996016179e-11)
(-88.322 0 -1.33406339423e-12)
(-88.322 0 6.12817742732e-12)
(-88.322 0 -1.01681240759e-12)
(-88.322 0 1.32838240856e-11)
(-88.322 0 1.59253668722e-11)
(-88.322 0 -2.23717378358e-11)
(-88.322 0 7.57248549777e-11)
(-88.322 0 7.53941515111e-11)
(-88.322 0 5.3542420099e-11)
(-88.322 0 3.34742450286e-11)
(-88.322 0 -4.42422225697e-12)
(-88.322 0 -1.6566479678e-11)
(-88.322 0 9.57397667261e-11)
(-88.322 0 1.84489034153e-10)
(-88.322 0 -4.93203923787e-11)
(-88.322 0 -8.15810529697e-11)
(-88.322 0 -6.02963148844e-11)
(-88.322 0 9.06511022194e-11)
(-88.322 0 6.06244932176e-11)
(-88.3219999999 0 -5.79967898296e-13)
(-88.3220000001 0 6.99214783435e-11)
(-88.322 0 4.02646248682e-11)
(-88.3219999999 0 3.92557024206e-11)
(-88.3220000002 0 -3.99955183415e-11)
(-88.3220000001 0 5.30283517285e-12)
(-88.322 0 4.18424471957e-13)
(-88.3220000001 0 -2.6230576355e-12)
(-88.3219999999 0 -1.31691081655e-12)
(-88.322 0 5.11409885588e-12)
(-88.322 0 2.09064393913e-12)
(-88.322 0 -9.94242027962e-13)
(-88.322 0 1.31697308862e-11)
(-88.322 0 4.80896946952e-12)
(-88.322 0 -5.84934138338e-12)
(-88.322 0 4.39855361126e-13)
(-88.322 0 5.02062883418e-13)
(-88.322 0 -5.84243386938e-14)
(-88.322 0 -1.10186751338e-13)
(-88.322 0 -6.90975628515e-13)
(-88.322 0 1.31511452417e-11)
(-88.322 0 -5.321196589e-12)
(-88.322 0 -4.24503855857e-13)
(-88.322 0 7.33241126834e-13)
(-88.322 0 2.61663075876e-12)
(-88.322 0 3.77058949036e-11)
(-88.322 0 -6.74394358044e-11)
(-88.3220000002 0 -7.13131265608e-11)
(-88.3220000001 0 6.88335945705e-11)
(-88.3219999998 0 4.04645362839e-11)
(-88.3220000001 0 5.7870734521e-12)
(-88.3219999998 0 4.96690571696e-11)
(-88.3219999997 0 -1.82707844112e-11)
(-88.3220000001 0 6.07126913787e-11)
(-88.322 0 -6.10136038976e-11)
(-88.322 0 6.75730318864e-12)
(-88.322 0 -1.40490758219e-11)
(-88.322 0 2.00430259512e-11)
(-88.322 0 2.06866033593e-12)
(-88.3219999998 0 -7.97828735121e-12)
(-88.3220000002 0 4.34044994833e-13)
(-88.322 0 8.69331290914e-13)
(-88.3219999996 0 -4.28170738034e-13)
(-88.3220000002 0 -7.28448407383e-12)
(-88.3220000003 0 -7.65910384145e-12)
(-88.322 0 7.24413002136e-12)
(-88.322 0 -3.49486286276e-11)
(-88.322 0 5.63160269127e-11)
(-88.322 0 -9.17988934565e-11)
(-88.322 0 -1.32630086719e-10)
(-88.3219999999 0 -2.88362024212e-11)
(-88.3219999998 0 -3.15125372106e-11)
(-88.322 0 -6.31287518686e-12)
(-88.3220000001 0 -4.28759264625e-12)
(-88.3220000001 0 -4.57371644209e-12)
(-88.3220000001 0 1.23534917585e-12)
(-88.3219999999 0 -5.46593342498e-13)
(-88.3219999999 0 -2.72886511141e-13)
(-88.3220000001 0 -1.88625764755e-12)
(-88.3220000002 0 -1.78018303593e-12)
(-88.322 0 1.30089230946e-11)
(-88.3219999997 0 -1.48158219595e-11)
(-88.3219999998 0 -1.25119844367e-12)
(-88.3220000002 0 -2.99424453521e-11)
(-88.322 0 -1.86574497504e-11)
(-88.3219999999 0 -7.74797621205e-11)
(-88.322 0 1.78158140997e-11)
(-88.3220000002 0 -5.91082734757e-11)
(-88.3220000001 0 -6.88187452502e-11)
(-88.3219999999 0 6.82026896609e-11)
(-88.322 0 3.45433696459e-11)
(-88.322 0 -4.7507757859e-11)
(-88.322 0 1.09092685241e-11)
(-88.322 0 -4.14612633608e-11)
(-88.322 0 1.40088680606e-10)
(-88.322 0 2.39534210693e-11)
(-88.322 0 -1.83890574046e-11)
(-88.322 0 3.1082378057e-12)
(-88.322 0 1.30264535578e-12)
(-88.322 0 1.15464539927e-13)
(-88.322 0 4.69935406302e-12)
(-88.322 0 1.49043646024e-11)
(-88.322 0 2.34941102494e-13)
(-88.322 0 -3.30715698955e-14)
(-88.322 0 -2.10018818324e-13)
(-88.322 0 8.01794133688e-13)
(-88.322 0 3.6834739487e-13)
(-88.322 0 4.41643815395e-12)
(-88.322 0 6.16380593476e-13)
(-88.322 0 -6.56701054036e-13)
(-88.322 0 -7.12605396878e-12)
(-88.322 0 6.59824085928e-12)
(-88.322 0 6.312880475e-11)
(-88.322 0 6.14923251988e-11)
(-88.322 0 -1.05425802123e-11)
(-88.322 0 1.38117841339e-10)
(-88.322 0 -7.08898752035e-11)
(-88.322 0 -2.79066479774e-11)
(-88.322 0 2.09897495994e-11)
(-88.322 0 3.18741721504e-11)
(-88.322 0 -5.16473159198e-12)
(-88.322 0 2.26090564008e-11)
(-88.322 0 3.565484934e-12)
(-88.322 0 -1.62474454029e-11)
(-88.322 0 -1.00905079044e-10)
(-88.322 0 6.74749112193e-11)
(-88.322 0 -8.75245977512e-11)
(-88.322 0 -1.27451608063e-10)
(-88.322 0 2.81972019541e-11)
(-88.3220000001 0 1.31521343684e-12)
(-88.3219999999 0 -1.29028083985e-11)
(-88.3220000002 0 2.62944028759e-12)
(-88.3220000004 0 -5.96541424749e-12)
(-88.3219999998 0 2.19040261202e-12)
(-88.3219999998 0 8.91489383887e-12)
(-88.3219999999 0 -7.64075617257e-11)
(-88.3219999999 0 -6.48784235655e-11)
(-88.322 0 -4.80406481465e-11)
(-88.322 0 -2.74411905898e-11)
(-88.322 0 4.15590594002e-12)
(-88.322 0 9.87657288042e-12)
(-88.322 0 -5.67028295365e-11)
(-88.322 0 -5.1338043062e-11)
(-88.322 0 4.81139872015e-12)
(-88.322 0 5.63821403185e-11)
(-88.322 0 3.31055961533e-11)
(-88.322 0 -9.9137393236e-11)
(-88.322 0 -7.05836381308e-11)
(-88.322 0 -3.71461666517e-12)
(-88.322 0 -7.18028433333e-11)
(-88.322 0 -4.00188482559e-11)
(-88.322 0 -5.27922701946e-11)
(-88.3219999999 0 5.16118369313e-11)
(-88.3219999999 0 -1.96025367381e-12)
(-88.3220000003 0 5.22267338348e-13)
(-88.3220000001 0 -1.6689591695e-12)
(-88.3219999999 0 4.96827813959e-13)
(-88.3219999997 0 1.39674771471e-11)
(-88.3219999999 0 -2.20834022429e-12)
(-88.3220000003 0 5.7315080959e-12)
(-88.3220000001 0 -1.12474726796e-11)
(-88.3219999999 0 -3.9801592497e-12)
(-88.322 0 1.07750061554e-11)
(-88.322 0 7.88205874637e-13)
(-88.322 0 -2.31303314491e-12)
(-88.322 0 -1.5093925568e-11)
(-88.322 0 -3.67823332763e-12)
(-88.322 0 1.22505772334e-12)
(-88.322 0 -1.03407840738e-11)
(-88.322 0 4.47401225021e-12)
(-88.322 0 5.66496599331e-13)
(-88.322 0 -2.68220716436e-12)
(-88.322 0 -5.10937161714e-12)
(-88.322 0 -3.16537980832e-11)
(-88.322 0 7.5416670609e-11)
(-88.322 0 6.83128427262e-11)
(-88.322 0 -1.00509355932e-10)
(-88.322 0 -6.76937496561e-11)
(-88.322 0 -1.086001252e-11)
(-88.322 0 -5.70289823807e-11)
(-88.322 0 2.42944841132e-11)
(-88.3219999999 0 -5.84871143617e-11)
(-88.3219999999 0 6.48773302757e-11)
(-88.3220000001 0 -1.45933564427e-12)
(-88.3220000001 0 1.32754738488e-11)
(-88.322 0 -1.67640486684e-11)
(-88.322 0 -3.83754331504e-12)
(-88.322 0 7.3537783611e-12)
(-88.322 0 -1.60303592972e-12)
(-88.322 0 1.55607734915e-12)
(-88.322 0 4.2492840309e-12)
(-88.322 0 3.74888032463e-12)
(-88.322 0 -4.36015315919e-12)
(-88.322 0 -8.91093930828e-12)
(-88.322 0 2.52827864883e-11)
(-88.322 0 -6.06903664929e-11)
(-88.322 0 1.11451652649e-10)
(-88.322 0 1.66039624873e-10)
(-88.322 0 3.02956759146e-11)
(-88.322 0 2.99884674051e-11)
(-88.322 0 4.27349890886e-12)
(-88.322 0 -2.4075293667e-12)
(-88.322 0 5.11364023685e-12)
(-88.322 0 1.77738963765e-13)
(-88.322 0 1.22746834316e-13)
(-88.322 0 -1.28504949656e-12)
(-88.322 0 3.69106750935e-12)
(-88.322 0 3.45521029793e-12)
(-88.322 0 7.74023593847e-13)
(-88.322 0 4.82119918495e-12)
(-88.322 0 -2.43636176862e-12)
(-88.322 0 4.40018201934e-12)
(-88.322 0 4.66166176993e-12)
(-88.322 0 -3.78081899072e-12)
(-88.322 0 8.57935708846e-12)
(-88.322 0 4.18784752305e-12)
(-88.322 0 1.16767307795e-11)
(-88.322 0 -3.77728642916e-11)
(-88.322 0 6.77889017201e-11)
(-88.322 0 3.86953958608e-11)
(-88.322 0 -1.11586568789e-11)
(-88.322 0 3.19491716058e-11)
(-88.322 0 -1.89239258137e-10)
(-88.322 0 -9.81491139141e-12)
(-88.322 0 3.13698921065e-11)
(-88.322 0 3.69105179548e-12)
(-88.322 0 -2.85410790972e-12)
(-88.322 0 1.26413274247e-11)
(-88.322 0 -7.1967381333e-12)
(-88.322 0 -1.41244406875e-11)
(-88.322 0 -1.79964442264e-12)
(-88.322 0 4.03255614494e-12)
(-88.322 0 1.24376533382e-11)
(-88.322 0 3.42073586567e-12)
(-88.322 0 1.05643869169e-11)
(-88.322 0 -3.02000793459e-12)
(-88.322 0 -3.99218045061e-12)
(-88.3219999999 0 1.40880239462e-11)
(-88.3219999998 0 7.89920454921e-12)
(-88.3220000004 0 1.70693081183e-11)
(-88.3220000003 0 -1.9569426307e-11)
(-88.3219999998 0 -9.33175219364e-13)
(-88.322 0 -9.04121901197e-12)
(-88.3219999999 0 -5.70221321705e-12)
(-88.322 0 -2.40830890614e-11)
(-88.3219999999 0 3.72869649533e-11)
(-88.3219999999 0 -1.40898982904e-10)
(-88.3220000001 0 -9.40963126652e-11)
(-88.322 0 -4.24378667405e-11)
(-88.322 0 1.01794409703e-12)
(-88.322 0 1.69074305606e-11)
(-88.322 0 -1.11155664497e-11)
(-88.322 0 -1.12861857153e-11)
(-88.322 0 6.2150282421e-12)
(-88.322 0 3.51435465157e-12)
(-88.322 0 -1.1098382068e-11)
(-88.322 0 -2.3071370863e-11)
(-88.322 0 -9.26174635997e-12)
(-88.322 0 -1.01681409189e-11)
(-88.322 0 1.60296215924e-12)
(-88.322 0 -8.05063257478e-12)
(-88.322 0 -6.73942165699e-12)
(-88.322 0 1.22394156844e-12)
(-88.322 0 -7.55326540828e-13)
(-88.322 0 -3.74033791e-12)
(-88.322 0 -5.63712036566e-12)
(-88.322 0 -2.66985239668e-12)
(-88.322 0 1.15058105981e-12)
(-88.322 0 -1.70263946818e-11)
(-88.322 0 -1.65839046607e-11)
(-88.322 0 2.44119040413e-11)
(-88.322 0 5.09073092703e-11)
(-88.322 0 -6.079470731e-11)
(-88.322 0 -6.25339171484e-11)
(-88.322 0 -5.12860741109e-11)
(-88.322 0 2.09968166985e-12)
(-88.322 0 -1.74436084334e-11)
(-88.322 0 8.84736185687e-12)
(-88.322 0 -3.77570197285e-11)
(-88.322 0 -5.12347109433e-11)
(-88.322 0 -6.49065937268e-11)
(-88.3219999998 0 2.80038483954e-13)
(-88.3220000001 0 -8.21183522667e-11)
(-88.3220000003 0 -8.53730094211e-11)
(-88.3219999999 0 -1.6923511989e-10)
(-88.3220000001 0 7.09537006894e-11)
(-88.322 0 1.8245693537e-10)
(-88.3219999999 0 -1.05476011215e-10)
(-88.322 0 -1.25967350793e-10)
(-88.322 0 2.93214335908e-11)
(-88.322 0 1.50571206848e-11)
(-88.322 0 -1.02676391745e-10)
(-88.322 0 -1.05737087298e-10)
(-88.322 0 9.10692838322e-11)
(-88.322 0 -5.87919433027e-11)
(-88.322 0 3.66181190575e-11)
(-88.322 0 -1.1842604533e-10)
(-88.322 0 1.10902984135e-10)
(-88.322 0 6.19227258942e-12)
(-88.322 0 7.22178208231e-12)
(-88.322 0 1.22115993203e-11)
(-88.322 0 -3.38391960644e-11)
(-88.322 0 -1.33551379433e-10)
(-88.3220000001 0 -1.19209957368e-10)
(-88.322 0 2.13126118473e-11)
(-88.322 0 1.23306721118e-10)
(-88.322 0 1.84094153756e-10)
(-88.322 0 -4.58271587615e-11)
(-88.3219999999 0 -8.9225332332e-11)
(-88.3220000001 0 6.00182119346e-11)
(-88.3220000002 0 -2.16591158406e-11)
(-88.3219999999 0 -3.29061046837e-11)
(-88.322 0 1.49849389895e-11)
(-88.322 0 1.33735501448e-11)
(-88.322 0 4.02579174943e-12)
(-88.322 0 -1.2672773033e-12)
(-88.322 0 -1.92573413241e-11)
(-88.322 0 1.24088120913e-12)
(-88.322 0 -1.69637164963e-11)
(-88.322 0 9.19038254726e-12)
(-88.322 0 6.9570861646e-12)
(-88.322 0 -4.09841078945e-12)
(-88.322 0 -7.57263471362e-11)
(-88.322 0 -5.71314922973e-11)
(-88.322 0 -8.55619815401e-11)
(-88.322 0 -1.01900261552e-10)
(-88.322 0 -7.60420906269e-11)
(-88.322 0 -2.11187468823e-12)
(-88.322 0 1.23601543432e-11)
(-88.322 0 2.38709983652e-13)
(-88.322 0 -2.74656272497e-11)
(-88.322 0 -5.10042481983e-11)
(-88.322 0 3.99438217953e-11)
(-88.3219999999 0 5.83895942089e-11)
(-88.3219999999 0 1.22793695885e-10)
(-88.3220000002 0 -4.86674034666e-11)
(-88.3220000002 0 -1.70905765054e-11)
(-88.322 0 1.17013177091e-11)
(-88.3219999999 0 1.87118163362e-11)
(-88.3219999999 0 2.77649806145e-11)
(-88.322 0 1.00315070739e-11)
(-88.322 0 9.75258436847e-12)
(-88.3220000001 0 1.86070850249e-12)
(-88.322 0 -4.80368180095e-12)
(-88.3219999999 0 2.66910819932e-13)
(-88.322 0 6.34489929121e-12)
(-88.3220000002 0 -1.00660420751e-10)
(-88.3220000002 0 5.87206700094e-11)
(-88.3219999997 0 6.90037649087e-11)
(-88.3219999993 0 3.14203492333e-11)
(-88.3220000004 0 1.17136057258e-10)
(-88.3220000006 0 -2.9330765933e-11)
(-88.3219999997 0 1.04386547305e-11)
(-88.3219999997 0 1.25157021302e-12)
(-88.3220000003 0 -8.17662408701e-13)
(-88.3220000002 0 8.81411395294e-13)
(-88.3219999996 0 -8.55027834582e-12)
(-88.3219999999 0 9.03821625231e-12)
(-88.3220000001 0 -6.36695393614e-12)
(-88.3220000001 0 -1.99331442278e-12)
(-88.3219999998 0 1.80789062622e-11)
(-88.3219999998 0 1.50958303331e-11)
(-88.3220000002 0 3.37809807107e-11)
(-88.322 0 -3.67844910629e-11)
(-88.3220000001 0 -5.61697981064e-11)
(-88.3220000001 0 2.10203459062e-11)
(-88.322 0 -6.24473309288e-12)
(-88.3220000001 0 6.77062355922e-12)
(-88.3219999998 0 3.77923146692e-11)
(-88.3219999995 0 3.54172441257e-11)
(-88.3220000003 0 3.7582355413e-11)
(-88.3220000005 0 -8.91404914805e-12)
(-88.3219999998 0 1.18088078859e-11)
(-88.3219999998 0 -4.61957525912e-11)
(-88.322 0 7.12892774301e-11)
(-88.322 0 4.07239453799e-11)
(-88.3219999999 0 2.55757216496e-11)
(-88.322 0 -2.1047360006e-11)
(-88.322 0 -1.67868717173e-11)
(-88.322 0 9.66854304222e-12)
(-88.322 0 -3.73237145086e-12)
(-88.322 0 -6.95639635415e-13)
(-88.322 0 -6.50798982755e-12)
(-88.322 0 3.30648750362e-12)
(-88.322 0 1.2302103844e-11)
(-88.3220000002 0 7.40696142006e-12)
(-88.3220000001 0 9.23313969195e-13)
(-88.322 0 -2.044784821e-11)
(-88.322 0 -3.67054059085e-13)
(-88.322 0 -1.34223027572e-11)
(-88.3219999998 0 -4.9384493657e-12)
(-88.3219999998 0 -8.88721061919e-12)
(-88.322 0 -1.01594955643e-12)
(-88.3220000001 0 -4.20534458252e-13)
(-88.3220000001 0 3.09717355095e-12)
(-88.3219999999 0 -2.47176990557e-12)
(-88.3219999998 0 1.79710128883e-11)
(-88.3219999998 0 1.09101660022e-11)
(-88.3220000002 0 -2.07088520281e-11)
(-88.3220000003 0 -5.26419620877e-11)
(-88.3219999999 0 5.63783771772e-11)
(-88.322 0 6.11741731584e-11)
(-88.322 0 4.65353120911e-11)
(-88.322 0 -1.19777421922e-12)
(-88.322 0 1.79880979999e-11)
(-88.322 0 -3.99658823682e-12)
(-88.322 0 3.85123354484e-11)
(-88.322 0 5.1296429548e-11)
(-88.322 0 6.39609081067e-11)
(-88.322 0 4.87206600137e-13)
(-88.322 0 8.41730720519e-11)
(-88.322 0 8.76303523457e-11)
(-88.322 0 1.74573781264e-10)
(-88.322 0 -7.03173745904e-11)
(-88.3220000001 0 -1.78427314613e-10)
(-88.322 0 1.02260163638e-10)
(-88.322 0 1.24207995968e-10)
(-88.322 0 -2.77681422065e-11)
(-88.322 0 -1.58955918266e-11)
(-88.322 0 1.01329817103e-10)
(-88.322 0 1.04108894035e-10)
(-88.322 0 -9.29087701482e-11)
(-88.322 0 5.92028038539e-11)
(-88.322 0 -3.67699814256e-11)
(-88.322 0 1.16967713962e-10)
(-88.322 0 -1.11422214651e-10)
(-88.3220000001 0 -5.20611351021e-12)
(-88.3220000002 0 -7.48893002164e-12)
(-88.3219999999 0 -1.67124679774e-11)
(-88.3219999999 0 1.32439884025e-11)
(-88.322 0 1.14780360781e-10)
(-88.322 0 1.00939996382e-10)
(-88.322 0 4.61876818748e-12)
(-88.322 0 -5.31833233718e-11)
(-88.322 0 -1.93538527032e-10)
(-88.322 0 9.9240642457e-11)
(-88.322 0 6.16877643731e-11)
(-88.322 0 -3.28871766274e-12)
(-88.322 0 -4.54502143769e-11)
(-88.322 0 1.36530483518e-11)
(-88.322 0 -2.49156090811e-11)
(-88.322 0 1.69135388812e-12)
(-88.322 0 1.31714400278e-11)
(-88.322 0 -5.38823955929e-12)
(-88.322 0 1.75300076863e-11)
(-88.322 0 -1.16503602792e-12)
(-88.322 0 1.4285130484e-11)
(-88.322 0 -1.35078331368e-11)
(-88.322 0 -1.9597643704e-11)
(-88.322 0 -1.18334997314e-11)
(-88.322 0 3.77208736986e-11)
(-88.322 0 6.37016567139e-11)
(-88.322 0 3.96308660573e-11)
(-88.322 0 2.0623760978e-11)
(-88.322 0 -9.06930345273e-12)
(-88.322 0 -3.93776004239e-13)
(-88.322 0 -1.15372759664e-11)
(-88.322 0 -9.14627871491e-14)
(-88.322 0 2.39698089369e-11)
(-88.322 0 5.09243287035e-11)
(-88.322 0 -4.39687545515e-11)
(-88.322 0 -5.88612949879e-11)
(-88.322 0 -1.20510730421e-10)
(-88.322 0 4.16432620052e-11)
(-88.322 0 1.73721470442e-11)
(-88.322 0 -1.11018957635e-11)
(-88.322 0 -1.84423503666e-11)
(-88.322 0 -2.92582809784e-11)
(-88.322 0 -1.76195945955e-11)
(-88.322 0 -1.02833164931e-11)
(-88.322 0 6.18538191842e-14)
(-88.322 0 5.93792994464e-12)
(-88.322 0 1.00475207257e-11)
(-88.322 0 -3.16977322622e-11)
(-88.322 0 3.6836109322e-11)
(-88.322 0 -5.6253350421e-11)
(-88.322 0 -5.25263039003e-11)
(-88.322 0 -7.58670256548e-11)
(-88.322 0 2.23679528644e-11)
(-88.322 0 -5.61364319251e-11)
(-88.322 0 -1.09254245981e-10)
(-88.322 0 7.21317260616e-11)
(-88.322 0 5.31345437707e-11)
(-88.322 0 -2.06224606792e-11)
(-88.322 0 1.75541563213e-12)
(-88.322 0 -6.02892252025e-11)
(-88.322 0 -6.70179571028e-11)
(-88.322 0 -3.47083621245e-11)
(-88.322 0 -7.37252637597e-11)
(-88.322 0 -3.44373573252e-11)
(-88.322 0 -4.08365202623e-11)
(-88.322 0 3.4871064613e-11)
(-88.3220000001 0 6.10885252541e-11)
(-88.3219999999 0 -3.77771442968e-11)
(-88.3219999998 0 1.18145946343e-11)
(-88.3220000003 0 -4.04750730421e-11)
(-88.3220000001 0 4.37293892903e-11)
(-88.3219999999 0 -3.74582552103e-11)
(-88.322 0 -1.37925255031e-10)
(-88.322 0 -8.89873357766e-11)
(-88.322 0 -4.04716703786e-11)
(-88.322 0 5.35810986959e-12)
(-88.322 0 1.17408156852e-12)
(-88.322 0 -1.11724367154e-12)
(-88.322 0 5.14746592861e-13)
(-88.322 0 1.03032128318e-11)
(-88.322 0 -1.29840213232e-11)
(-88.322 0 -2.64647505832e-12)
(-88.322 0 -1.62892946249e-12)
(-88.322 0 -6.07548253322e-12)
(-88.322 0 -2.23567867988e-12)
(-88.322 0 6.48757281201e-12)
(-88.322 0 1.76895872558e-13)
(-88.3220000001 0 5.23184077711e-12)
(-88.322 0 -2.21425120636e-11)
(-88.322 0 7.8595928216e-11)
(-88.3220000001 0 -1.00515724e-10)
(-88.3220000001 0 -1.52927667094e-10)
(-88.3219999999 0 -1.4261452418e-11)
(-88.3219999998 0 -2.71390551182e-12)
(-88.322 0 -1.44371926157e-12)
(-88.322 0 5.93085588248e-13)
(-88.322 0 -4.97652264945e-12)
(-88.322 0 8.28616195922e-13)
(-88.322 0 -1.45990247255e-12)
(-88.322 0 -1.84052154923e-12)
(-88.322 0 -7.80270005783e-12)
(-88.322 0 -7.30990374417e-13)
(-88.322 0 4.74794952023e-12)
(-88.322 0 -1.09928366466e-14)
(-88.322 0 -1.34007258326e-12)
(-88.322 0 -6.75734186169e-12)
(-88.322 0 -3.43240788003e-12)
(-88.322 0 -1.57036234404e-11)
(-88.322 0 -7.07696592424e-13)
(-88.322 0 2.19751346532e-14)
(-88.3220000001 0 7.30232062807e-13)
(-88.3219999999 0 -3.18025106211e-14)
(-88.322 0 -5.63196875847e-13)
(-88.3220000001 0 -4.72150741361e-13)
(-88.322 0 -1.01894732906e-12)
(-88.3219999998 0 -1.33775064797e-11)
(-88.322 0 -1.31156603232e-12)
(-88.3220000003 0 -5.1717341139e-14)
(-88.3219999997 0 -3.81875150835e-13)
(-88.3219999997 0 1.10406086785e-13)
(-88.3220000002 0 1.62603792312e-12)
(-88.3220000001 0 9.71782115865e-14)
(-88.3220000001 0 2.56702076926e-13)
(-88.3220000001 0 2.50840993427e-13)
(-88.3219999999 0 -2.17104237743e-12)
(-88.322 0 -6.77718113392e-13)
(-88.322 0 -4.85920415573e-13)
(-88.3219999999 0 -7.51701436831e-14)
(-88.322 0 -3.53139760857e-13)
(-88.322 0 6.30562403792e-13)
(-88.322 0 7.8745446019e-12)
(-88.322 0 8.71277561318e-12)
(-88.322 0 3.68028130532e-14)
(-88.322 0 -5.23208805877e-12)
(-88.322 0 -1.16675644209e-11)
(-88.3220000003 0 -3.57628574157e-11)
(-88.3220000002 0 -7.45063966072e-12)
(-88.3219999998 0 -1.96453434709e-11)
(-88.3219999998 0 -2.11063668031e-12)
(-88.3219999999 0 4.72203922914e-11)
(-88.322 0 4.55825284145e-11)
(-88.322 0 3.77145300959e-11)
(-88.322 0 1.91007992844e-11)
(-88.3220000001 0 3.38840796225e-11)
(-88.322 0 -4.62195744343e-12)
(-88.322 0 4.32507379017e-12)
(-88.322 0 1.75423629244e-11)
(-88.322 0 4.4856140697e-13)
(-88.322 0 1.92688335229e-12)
(-88.322 0 5.15213732448e-12)
(-88.322 0 1.29520458659e-11)
(-88.3220000001 0 1.36828357239e-11)
(-88.3219999999 0 7.54224414553e-11)
(-88.3220000002 0 7.2551660382e-11)