/*--------------------------------*- C++ -*----------------------------------*\
  =========                 |
  \\      /  F ield         | OpenFOAM: The Open Source CFD Toolbox
   \\    /   O peration     | Website:  https://openfoam.org
    \\  /    A nd           | Version:  6
     \\/     M anipulation  |
\*---------------------------------------------------------------------------*/
FoamFile
{
    version     2.0;
    format      ascii;
    class       volScalarField;
    location    "4.83e-05";
    object      p;
}
// * * * * * * * * * * * * * * * * * * * * * * * * * * * * * * * * * * * * * //

dimensions      [1 -1 -2 0 0 0 0];

internalField   nonuniform List<scalar> 
8192
(
6000000.00069
5999999.99938
6000000.00042
6000000.001
6000000.00473
5999999.99786
6000000.00166
5999999.99947
6000000.00038
5999999.99985
6000000.00019
5999999.99979
6000000.00059
6000000.00143
6000000.00075
6000000.00062
6000000.00053
5999999.99813
5999999.99905
6000000.00063
5999999.99855
5999999.99725
6000000.00173
5999999.99987
5999999.99949
6000000.00006
5999999.99806
5999999.99916
5999999.99823
5999999.99902
6000000.00025
6000000.00062
5999999.99646
5999999.99382
6000000.00772
6000000.00758
5999999.99908
6000000.00441
5999999.99953
5999999.99706
6000000.0038
5999999.99759
6000000.00028
5999999.99988
6000000.00042
6000000.00038
6000000.00011
5999999.99977
5999999.99925
6000000.00167
5999999.99695
6000000.00067
6000000.00316
5999999.99583
5999999.99641
6000000.00119
5999999.99993
6000000.00314
6000000.00004
6000000.00582
5999999.99661
5999999.99737
5999999.99699
6000000.00253
6000000.00074
6000000.00218
5999999.99993
6000000.00395
5999999.99561
6000000.00323
5999999.99864
5999999.99662
6000000.00269
6000000.00273
6000000.00682
5999999.99674
5999999.99447
6000000.00643
6000000.00245
5999999.9953
5999999.99444
5999999.99182
6000000.00315
6000000.00586
6000000.00011
5999999.99917
6000000.00639
6000000.00474
5999999.9975
5999999.99716
5999999.99841
5999999.99831
5999999.99704
6000000.00444
5999999.99679
6000000.0023
6000000.00161
5999999.99945
6000000.00379
5999999.99826
5999999.9997
5999999.99988
5999999.9997
6000000.00025
5999999.99906
6000000.00029
6000000.00012
6000000
5999999.99998
5999999.99998
6000000.00006
6000000.00028
5999999.99939
6000000.00064
5999999.99971
6000000.00134
6000000.0001
5999999.99861
6000000.00077
5999999.99903
5999999.99923
5999999.99883
6000000.00016
5999999.99885
6000000.00019
5999999.99951
6000000.0003
6000000.00034
6000000.00609
6000000.00054
5999999.99683
6000000.00053
5999999.99858
5999999.99955
5999999.99997
5999999.99967
6000000.00074
6000000.0009
5999999.99852
6000000.00368
6000000.00077
6000000.00321
6000000.00439
5999999.99652
5999999.99686
5999999.99808
6000000.00212
6000000.0023
5999999.99988
5999999.99988
5999999.99881
6000000.00071
5999999.99473
6000000.00055
5999999.99708
5999999.9967
6000000.00168
6000000.00115
5999999.99837
5999999.99911
5999999.99977
5999999.99962
6000000.00017
6000000.0005
5999999.99963
6000000.00226
6000000.00019
6000000.00116
5999999.99777
6000000.00062
5999999.99736
6000000.00318
6000000.00199
6000000.00273
6000000.00197
6000000.0041
6000000.00226
6000000.00036
5999999.9942
6000000.00296
6000000.00167
5999999.9979
6000000.00071
5999999.99797
6000000.00287
6000000.00085
6000000.00208
5999999.99309
5999999.99247
6000000.00186
6000000.00631
6000000.0042
5999999.99926
5999999.99935
6000000.00115
6000000.00038
5999999.99989
6000000.00001
5999999.99997
6000000.00001
6000000.00015
6000000.00005
6000000.00001
5999999.99748
5999999.99755
6000000.00296
5999999.99924
5999999.99996
6000000.00005
5999999.99998
6000000.0001
6000000.00028
6000000.00039
5999999.99945
5999999.99994
6000000.00003
5999999.99977
6000000.0002
6000000.00005
5999999.99546
6000000.00094
6000000.00176
5999999.99704
6000000.00092
6000000.00692
5999999.99409
5999999.99693
6000000.0053
6000000.0086
5999999.9918
5999999.99484
6000000.00144
6000000.00393
5999999.99555
6000000.00323
6000000.00032
6000000.00483
5999999.9982
6000000.00716
6000000.00358
5999999.99105
6000000.00038
6000000.00654
5999999.99835
6000000.00539
5999999.99374
5999999.99836
6000000.00149
6000000.00329
6000000.00405
6000000.00054
6000000.00234
6000000.00082
5999999.99892
5999999.99933
5999999.99919
5999999.9999
5999999.99877
6000000.00061
5999999.99792
6000000.00212
5999999.99831
5999999.99963
5999999.99921
5999999.99967
5999999.99992
5999999.99977
6000000.0014
6000000.00162
5999999.99649
6000000.00035
6000000.00162
5999999.99994
6000000.00292
5999999.99521
5999999.99703
6000000.00511
6000000.00088
5999999.99627
5999999.99481
5999999.99964
5999999.99411
5999999.99839
5999999.99455
6000000.0017
6000000.00548
5999999.99596
6000000.00065
5999999.99913
6000000.00134
5999999.99945
5999999.99933
6000000.00164
5999999.99765
6000000.00207
6000000.00018
6000000.00004
6000000.00016
6000000.00001
6000000.00001
6000000.00001
6000000.00036
5999999.99886
6000000.00149
5999999.99704
5999999.99983
5999999.9983
6000000.00187
6000000.00619
5999999.99853
5999999.99319
6000000.00287
6000000.00699
5999999.9977
6000000.00351
5999999.99826
6000000.00704
5999999.99611
5999999.99663
5999999.99629
6000000.00185
6000000.00238
5999999.99514
6000000.00187
6000000.00106
5999999.99997
6000000.00098
5999999.99843
6000000.00043
6000000.00078
5999999.99789
6000000.00258
6000000.00224
6000000.00095
6000000.00021
5999999.99968
5999999.99699
5999999.99742
6000000.00063
6000000.00099
5999999.99974
5999999.99832
5999999.99763
6000000.00081
5999999.99653
6000000.00079
5999999.9965
5999999.99413
5999999.99661
6000000.00362
5999999.99731
5999999.99631
6000000.0073
5999999.99877
6000000.00302
6000000.00002
5999999.99647
6000000.00391
5999999.99539
6000000.00377
5999999.99984
5999999.99939
6000000.00111
5999999.9997
6000000.00082
6000000.00009
6000000.00083
6000000.00165
5999999.99805
6000000.00302
6000000.0013
5999999.99726
6000000.00196
6000000.00003
5999999.99995
6000000.00388
5999999.9979
6000000.00388
6000000.00292
5999999.99387
5999999.99218
5999999.99546
5999999.99873
6000000.00119
6000000.00215
6000000.0031
5999999.99407
5999999.99152
6000000.0016
5999999.99596
5999999.99873
6000000.00516
5999999.9983
5999999.99877
6000000.00221
5999999.99654
5999999.99801
6000000.00655
5999999.99604
5999999.99922
5999999.99414
6000000.00199
6000000.00518
5999999.99965
5999999.99806
5999999.99135
6000000.00423
5999999.99911
6000000.00459
5999999.99879
5999999.99667
6000000.00303
5999999.99469
5999999.99359
6000000.0003
6000000.00284
5999999.99817
5999999.99796
5999999.99769
6000000.00183
6000000.00193
5999999.99753
6000000.00202
5999999.99852
5999999.99936
6000000.00107
5999999.99913
5999999.99969
5999999.99997
6000000.00054
6000000.00128
5999999.99707
6000000.00148
6000000.00042
5999999.99952
5999999.99738
6000000.00172
6000000.00051
5999999.99889
6000000.00158
6000000.00132
5999999.99777
5999999.9994
6000000.00031
5999999.99937
5999999.99673
5999999.99695
5999999.99872
5999999.99554
6000000.00261
6000000.00205
6000000.00029
6000000.00051
5999999.99914
6000000.00304
5999999.998
6000000.00303
6000000.00204
5999999.99545
6000000.00463
6000000.00138
6000000.0005
6000000.00077
5999999.99826
6000000.00214
6000000.00008
5999999.99909
6000000.00121
6000000.00011
5999999.99946
5999999.9973
6000000.00432
5999999.99672
5999999.9995
6000000.00174
5999999.99689
6000000.0037
5999999.99613
6000000.00259
5999999.99899
5999999.99926
5999999.99707
6000000.00261
6000000.00634
5999999.99807
5999999.998
6000000.00104
6000000.00267
5999999.99825
5999999.9973
6000000.00585
5999999.99813
5999999.99978
5999999.99968
6000000.00073
6000000.00311
5999999.99755
6000000.00439
5999999.99843
5999999.99861
6000000.00182
6000000.00029
5999999.99973
6000000.00332
6000000.00052
6000000.00285
5999999.9988
5999999.99899
5999999.99948
5999999.99742
5999999.9946
6000000.00269
6000000.00122
5999999.99854
5999999.99956
5999999.99879
6000000.00013
5999999.99827
6000000.00094
5999999.99898
6000000.00032
5999999.99957
5999999.99992
6000000.00019
5999999.99847
6000000.00083
6000000.00016
5999999.99988
5999999.99989
5999999.99981
6000000.00012
6000000.00024
5999999.9998
5999999.99989
5999999.99982
6000000.00002
5999999.99981
5999999.99992
5999999.99971
5999999.99951
6000000.00001
6000000
5999999.99981
5999999.99998
6000000.00004
5999999.99994
5999999.99862
6000000.00262
5999999.99822
5999999.9993
5999999.99912
5999999.9993
5999999.99995
5999999.99991
6000000.00001
5999999.99982
6000000.00136
6000000.00057
6000000.00006
6000000.00016
5999999.9994
5999999.99762
6000000.00271
6000000.00325
5999999.99866
5999999.99345
5999999.99294
6000000.00154
6000000.00605
6000000.0023
6000000.00411
5999999.99669
6000000.00456
5999999.99353
6000000.00101
5999999.99623
6000000.00038
5999999.99994
6000000.00298
5999999.99896
6000000.00185
5999999.99766
6000000.00168
5999999.99974
6000000.00004
6000000.00026
6000000.00031
6000000.00003
5999999.99977
6000000.00282
5999999.99977
6000000.00001
6000000.00002
5999999.99992
5999999.99989
6000000.00004
6000000.0005
5999999.999
5999999.99894
5999999.999
5999999.99918
5999999.99984
5999999.99858
5999999.99685
6000000.00172
6000000.00078
6000000.00082
6000000.00218
5999999.99755
5999999.99725
6000000.00763
6000000.00348
6000000.00132
6000000.00322
5999999.99725
5999999.99891
6000000.00097
5999999.9993
6000000.00077
6000000.00012
6000000.00055
6000000.00046
6000000.00235
5999999.99946
5999999.99802
6000000.00042
5999999.99962
5999999.99984
6000000.00498
5999999.9994
5999999.99775
6000000.00313
6000000.00173
6000000.00047
6000000.00098
5999999.99666
5999999.9978
6000000.0048
6000000.00528
6000000.00271
5999999.997
5999999.99769
6000000.00288
5999999.99985
5999999.99819
5999999.99704
6000000.00384
6000000.00286
5999999.99984
6000000.00176
5999999.99804
6000000.00129
5999999.9995
6000000.00068
6000000.00074
6000000.00051
6000000.00105
5999999.99945
5999999.99904
6000000.00148
6000000.00121
5999999.99376
5999999.99461
6000000.00355
6000000.00104
5999999.9994
5999999.99846
6000000.00298
5999999.9972
6000000.00084
6000000.00148
6000000.00282
5999999.99318
6000000.00284
6000000.00168
6000000.00508
5999999.9954
5999999.99769
6000000.00147
6000000.00065
5999999.99465
5999999.99802
6000000.00457
6000000.00583
5999999.99919
6000000.00178
6000000.00125
6000000.00437
5999999.9972
6000000.00136
6000000.00174
5999999.99564
6000000.0033
6000000.00308
6000000.00564
6000000.00881
5999999.99528
5999999.99788
6000000.00396
6000000.00709
5999999.99432
5999999.99466
6000000.00251
5999999.9978
6000000
6000000.00067
5999999.99629
6000000.00203
5999999.99713
6000000.00068
5999999.99627
5999999.9943
6000000.0037
6000000.00335
5999999.99858
6000000.00333
6000000.00139
6000000.00023
5999999.9997
5999999.99883
5999999.99741
6000000.0039
6000000.00765
5999999.99645
5999999.99864
5999999.9922
6000000.00503
6000000.00639
5999999.99566
5999999.99733
5999999.99581
5999999.99741
5999999.99636
6000000.00083
5999999.9992
6000000.00155
5999999.99911
5999999.9997
6000000.00322
5999999.9945
5999999.99452
5999999.99635
6000000.00668
6000000.00019
5999999.99878
6000000.00094
5999999.99968
6000000.00252
5999999.99914
6000000.0016
6000000.00612
5999999.9962
5999999.99443
5999999.99284
6000000.00288
6000000.00266
5999999.99181
5999999.99683
5999999.99677
6000000.00139
5999999.99862
5999999.99335
6000000.0041
6000000.0044
5999999.99995
6000000.0009
5999999.99999
6000000.00049
6000000.0007
6000000.00039
6000000.00002
5999999.99998
5999999.99991
5999999.99988
6000000.00015
6000000.00026
5999999.99857
6000000.00201
6000000.00621
6000000.00005
6000000.00085
6000000.0027
5999999.99924
6000000.00325
6000000.00112
5999999.99984
5999999.99991
5999999.99983
6000000.00154
5999999.99762
5999999.99719
6000000.00112
5999999.99635
6000000.00102
5999999.99878
5999999.99957
5999999.99936
5999999.99992
5999999.99984
6000000.00009
6000000.00026
5999999.9977
6000000.00325
5999999.99863
5999999.99909
5999999.99993
5999999.99762
6000000.00101
6000000.00105
6000000.00009
6000000.00038
5999999.9989
6000000.00368
5999999.99992
6000000.00002
6000000.00052
5999999.99953
6000000.00042
5999999.99781
6000000.00563
6000000.00335
5999999.99519
5999999.99832
6000000.00227
5999999.99801
6000000.00358
5999999.99905
5999999.99996
6000000.00003
5999999.99959
6000000.00023
5999999.99928
6000000.00098
5999999.99716
6000000.00194
6000000.00101
6000000.00092
5999999.99977
6000000.00021
5999999.99691
6000000.00725
6000000.00343
5999999.99387
6000000.00143
6000000.00301
6000000.00449
5999999.99621
5999999.9951
6000000.00379
5999999.99869
5999999.99946
6000000.0002
5999999.99992
5999999.99992
5999999.99996
6000000.00002
5999999.99989
5999999.99993
5999999.99988
6000000.00022
5999999.99847
6000000.00232
5999999.99728
5999999.99955
6000000.00128
5999999.99328
6000000.00521
6000000.00538
6000000.00171
5999999.99919
6000000.00342
6000000.00526
5999999.99682
5999999.99558
6000000.00325
5999999.99922
6000000.00336
6000000.00542
6000000.00055
6000000.00598
6000000.00008
5999999.99978
6000000.00088
6000000.00065
5999999.99989
6000000.00006
6000000.0035
5999999.99808
6000000.00083
6000000.00185
6000000.00321
6000000.00274
5999999.99432
6000000.00178
6000000.00059
6000000.00065
5999999.99905
6000000.00533
6000000.00331
5999999.99784
6000000.00282
6000000.00025
5999999.99931
6000000.00067
5999999.99923
6000000.00219
5999999.99327
6000000.00275
6000000.00161
5999999.99999
5999999.99895
6000000.00012
6000000.00102
5999999.9998
6000000.00002
6000000.00002
6000000
6000000.00001
5999999.99989
6000000.00001
5999999.99981
5999999.99999
6000000.00024
5999999.99907
6000000.00145
5999999.99971
5999999.9998
5999999.99973
6000000.00019
5999999.99837
6000000.0005
6000000.00039
6000000.00069
5999999.99781
5999999.99808
6000000.00108
6000000.00164
5999999.99868
6000000.00098
5999999.99833
6000000.00286
6000000.00242
6000000.00048
6000000.00033
5999999.99958
5999999.99891
6000000.00228
5999999.99522
6000000.00666
5999999.99675
5999999.99467
6000000.00396
6000000.00454
6000000.00531
5999999.99999
6000000.00018
5999999.99484
5999999.99514
5999999.99545
6000000.00175
5999999.9977
6000000.00521
5999999.99925
5999999.99754
6000000.0007
5999999.99742
6000000.00188
5999999.99801
6000000.00495
5999999.99307
5999999.99562
6000000.00442
5999999.99506
5999999.99681
5999999.99821
6000000.00176
6000000.00159
6000000.00115
6000000.00002
6000000.00105
6000000.00052
6000000.00246
5999999.99629
6000000.00201
6000000.00113
5999999.99978
5999999.99808
5999999.9999
5999999.99993
5999999.99814
5999999.99887
6000000.00131
5999999.99993
6000000.00148
6000000.00204
5999999.99752
5999999.99892
6000000.00441
5999999.99925
5999999.99976
5999999.99991
6000000.00001
6000000.00001
6000000.00014
6000000.00003
5999999.99988
6000000.00058
6000000.00019
5999999.99631
6000000.00078
5999999.99969
5999999.99983
6000000.00003
6000000.00033
5999999.99803
6000000.00339
6000000.00198
5999999.99508
6000000.00669
5999999.99385
5999999.99283
6000000.0028
6000000.00566
5999999.99188
5999999.99758
5999999.9973
5999999.99937
6000000.00172
5999999.99796
6000000.00109
5999999.99623
5999999.9971
6000000.00037
5999999.99761
6000000.00311
5999999.99789
6000000.00171
6000000.00304
5999999.9953
5999999.99549
5999999.99443
5999999.99947
6000000.00478
6000000.00199
5999999.99613
5999999.99303
6000000.00425
6000000.00316
5999999.99388
5999999.99893
6000000.00594
6000000.00437
5999999.99766
5999999.99792
6000000.00421
5999999.99968
6000000.00002
6000000.00001
5999999.99992
6000000.00081
6000000.00149
5999999.99847
5999999.99818
5999999.99879
6000000.00027
6000000.0016
5999999.9996
6000000.00061
5999999.99835
5999999.99776
6000000.00149
6000000.00052
6000000.00021
6000000.00002
6000000.00001
5999999.99992
5999999.99996
6000000.00028
5999999.99922
5999999.99875
6000000.00016
6000000.00251
5999999.99793
5999999.99988
5999999.99998
5999999.99477
6000000.0006
6000000.00052
6000000.00415
6000000.00172
5999999.99955
6000000.00129
6000000.00048
5999999.99783
6000000.0032
5999999.99672
6000000.00295
6000000.00094
6000000.00462
5999999.99929
5999999.99969
6000000.00592
6000000.00238
6000000.00343
6000000.00201
5999999.99632
5999999.99884
6000000.00275
5999999.9997
5999999.99716
5999999.9973
6000000.00232
5999999.99735
5999999.99912
5999999.99697
6000000.00029
6000000.00222
5999999.99851
5999999.99861
5999999.99879
5999999.9998
5999999.99978
6000000.0013
6000000.00047
6000000.0006
5999999.99911
6000000.00155
6000000.00159
5999999.99809
6000000
6000000.00011
6000000.00002
6000000.00011
6000000.00003
6000000.00093
6000000.00117
5999999.99817
6000000.00262
6000000.00177
5999999.99644
6000000.00479
5999999.99513
5999999.99811
6000000.00268
6000000.0066
6000000.00306
6000000.00235
6000000.00161
5999999.99237
5999999.99735
5999999.99856
5999999.99914
6000000.00349
6000000.00496
5999999.9933
5999999.99698
5999999.99473
6000000.00592
6000000.00271
6000000.00293
5999999.99877
6000000.00086
6000000.00074
6000000.00182
5999999.99958
5999999.99907
5999999.99976
6000000.00003
5999999.99994
6000000.00082
5999999.9992
6000000.001
5999999.99968
6000000
5999999.9987
5999999.99628
6000000.00348
6000000.00105
5999999.99589
5999999.995
6000000.00577
5999999.99829
5999999.99572
6000000.00173
6000000.00639
5999999.99525
6000000.00432
5999999.99886
5999999.99811
6000000.00533
5999999.99938
6000000.00015
5999999.99998
6000000
6000000.00007
6000000.00001
6000000.00007
6000000.00002
6000000.00007
6000000.0002
6000000.00025
6000000.00003
6000000.00009
5999999.99943
6000000.00098
6000000.00149
5999999.99524
6000000.00337
6000000.0051
5999999.9986
6000000.00178
6000000.00223
6000000.00222
5999999.99926
6000000.00039
5999999.99372
6000000.00117
5999999.99936
6000000.00138
6000000.00266
5999999.99902
5999999.99874
5999999.99927
5999999.99896
6000000.00023
5999999.9986
6000000.0012
6000000.00195
5999999.99837
5999999.99942
5999999.99892
6000000.00116
5999999.99981
5999999.99999
5999999.99997
5999999.99935
6000000.00074
5999999.99916
5999999.99792
6000000.00351
5999999.9966
6000000.00162
5999999.999
5999999.99936
5999999.9998
5999999.99923
6000000.002
5999999.99536
6000000.002
5999999.99942
5999999.99929
6000000.00002
5999999.99944
5999999.99987
5999999.9997
6000000.00098
5999999.9986
5999999.99943
5999999.99995
5999999.99993
5999999.99992
5999999.99998
6000000.00009
5999999.99993
5999999.99974
6000000
5999999.9999
5999999.9999
6000000.00001
5999999.99954
6000000.00157
5999999.99961
6000000.00015
6000000.00012
6000000.00132
5999999.99825
6000000.00163
5999999.99646
6000000.00246
6000000.00158
6000000.00202
6000000.0024
5999999.9969
5999999.99939
5999999.99817
6000000.0023
5999999.99914
5999999.99787
6000000.00146
5999999.99838
5999999.99923
5999999.99966
6000000.00018
6000000.00401
6000000.00175
6000000.00334
5999999.99905
6000000.0003
6000000.00235
5999999.995
6000000.00092
5999999.99649
6000000.00508
6000000.0021
5999999.99438
5999999.99528
5999999.99525
6000000.00572
6000000.00193
6000000.00591
5999999.99699
5999999.99777
6000000.00084
5999999.99498
5999999.9945
5999999.99704
5999999.9982
6000000.00205
5999999.99507
5999999.99697
5999999.99325
6000000.00023
5999999.9951
5999999.99797
5999999.99678
5999999.9967
5999999.99548
5999999.99483
6000000.00396
6000000.0012
6000000.00128
5999999.99446
6000000.00215
5999999.99978
6000000.00009
6000000.00095
5999999.99884
6000000.0002
5999999.99615
6000000.00323
5999999.99452
5999999.99474
6000000.00223
5999999.99434
5999999.99514
6000000.00605
5999999.9953
5999999.9939
6000000.00095
6000000.00188
5999999.99955
6000000.00119
6000000.00042
6000000.00026
5999999.99996
6000000.00063
5999999.99952
6000000.00049
5999999.99925
6000000.00012
6000000.00018
5999999.99992
5999999.99993
5999999.99997
6000000.00137
5999999.9996
5999999.99961
6000000.00127
6000000.00003
5999999.99971
5999999.99978
5999999.9995
5999999.99904
6000000.00026
6000000.00006
6000000.00034
5999999.99968
5999999.99927
6000000.00058
6000000.0019
5999999.99847
6000000.00093
6000000.00267
6000000.00257
5999999.99631
5999999.99751
6000000.00299
5999999.99943
6000000.00126
6000000.0006
5999999.99691
6000000.00276
6000000.00224
6000000.00018
5999999.99853
6000000.00006
5999999.99819
6000000.0033
6000000.00033
6000000.00117
5999999.99881
5999999.9978
6000000.006
6000000.00565
5999999.99313
5999999.99728
6000000.00182
6000000.0015
5999999.99882
6000000.00125
5999999.99996
6000000.00322
5999999.99919
6000000.0022
5999999.99966
5999999.99964
5999999.99999
6000000.00004
5999999.99996
5999999.99998
5999999.99998
6000000.00001
6000000.00004
6000000.00014
6000000
6000000
6000000.00001
5999999.99998
6000000.00019
5999999.99992
6000000.00001
5999999.99993
5999999.99996
6000000.00018
6000000.00021
5999999.99995
6000000.00014
5999999.99999
6000000
5999999.99981
6000000.00029
5999999.99995
6000000.00024
5999999.99953
5999999.99939
5999999.99926
6000000.00035
5999999.99981
6000000.00247
5999999.99946
5999999.99967
5999999.99978
6000000.0001
6000000.00003
6000000.00013
5999999.99993
6000000.00001
6000000
6000000.00005
5999999.99911
6000000.00063
5999999.99886
6000000.00325
5999999.9995
5999999.99882
6000000.00149
5999999.99885
6000000.00354
6000000.00376
5999999.99877
5999999.99978
6000000.0063
6000000.00082
6000000.0007
6000000.00083
5999999.99971
6000000.00005
6000000.00007
6000000.00026
6000000.00008
6000000.00006
6000000.00023
5999999.99921
6000000.00114
6000000.00058
6000000.00039
6000000.00023
5999999.9996
6000000
5999999.99992
6000000.00002
5999999.99996
6000000.0009
5999999.99869
5999999.99744
6000000.00267
5999999.99788
6000000.00245
5999999.99664
5999999.99911
5999999.99982
5999999.99718
5999999.99968
6000000.00372
5999999.99537
5999999.99406
6000000.00168
5999999.9935
5999999.99361
6000000.00116
5999999.99718
5999999.99885
5999999.9959
6000000.00227
6000000.00217
5999999.99686
6000000.00438
5999999.9979
5999999.9979
6000000.00234
6000000.0023
5999999.99968
5999999.99933
5999999.99971
6000000.00007
5999999.99986
5999999.99947
6000000.00168
5999999.99945
6000000.00187
5999999.99856
5999999.99827
6000000.00014
5999999.99888
5999999.99945
5999999.99819
5999999.99877
5999999.99881
5999999.99991
5999999.99873
6000000.00391
5999999.9995
5999999.99808
5999999.9998
5999999.99998
5999999.99996
5999999.99983
5999999.99983
6000000.00022
5999999.99998
5999999.99996
6000000.00014
6000000.0001
5999999.99998
6000000.00007
5999999.99998
6000000.00017
6000000.00047
6000000.00054
5999999.99777
5999999.9983
6000000.00109
6000000.00013
5999999.99998
5999999.99997
6000000.00001
5999999.99989
5999999.99975
6000000.00009
5999999.99999
5999999.99909
6000000.00069
5999999.99963
6000000.0013
5999999.99916
6000000.00017
6000000.0017
5999999.99944
6000000.00037
5999999.99959
6000000.00006
5999999.99991
6000000
5999999.99983
5999999.99991
5999999.99997
5999999.9995
5999999.99867
6000000.00021
5999999.99906
6000000.00238
5999999.99818
6000000.00085
6000000.00047
5999999.99986
6000000.00027
6000000.00115
5999999.9992
5999999.99589
6000000.0034
6000000.00018
6000000.00013
6000000.00064
6000000.00169
6000000.00052
5999999.99755
6000000.00395
6000000.0032
5999999.99995
5999999.99809
6000000.00226
6000000.00166
5999999.99868
6000000.00494
6000000.00033
6000000.0025
5999999.99692
5999999.9976
6000000.00115
5999999.99916
5999999.99979
5999999.997
6000000.00377
6000000.00091
5999999.99892
6000000.00029
5999999.99845
6000000.00312
5999999.99841
6000000.0017
5999999.99495
6000000.00594
6000000.00463
5999999.99813
6000000.00115
5999999.99328
5999999.99263
6000000.00333
6000000.00253
6000000.00468
5999999.99829
5999999.99554
6000000.00429
5999999.99629
5999999.99874
5999999.99887
5999999.99828
6000000.00097
5999999.99927
6000000.00018
5999999.99974
5999999.99951
6000000.00031
5999999.99789
6000000.00183
5999999.99964
5999999.99904
6000000.00222
5999999.9982
6000000.00121
5999999.99628
6000000.00026
5999999.99999
5999999.99964
5999999.99838
5999999.99844
6000000.0015
6000000.00154
5999999.99931
6000000.00672
6000000.0025
5999999.99452
6000000.00291
5999999.99862
6000000.00678
6000000.00497
5999999.9974
5999999.99583
5999999.99881
6000000.00648
6000000.00197
5999999.99725
5999999.99627
5999999.99538
6000000.00287
5999999.99686
5999999.99494
5999999.99818
5999999.99473
6000000.00407
5999999.99729
5999999.99686
5999999.9987
6000000.00172
5999999.99768
5999999.99758
6000000.00142
6000000.00121
5999999.99649
5999999.99759
5999999.99572
5999999.99584
5999999.99725
5999999.99843
6000000.00082
5999999.9932
5999999.99433
6000000.00161
6000000.00036
5999999.99537
5999999.99601
5999999.99506
5999999.99392
6000000.00422
5999999.99709
5999999.99225
6000000.00002
5999999.99585
6000000.00214
6000000.00524
5999999.99257
5999999.9945
5999999.99764
6000000.00545
6000000.00095
5999999.99779
6000000.00324
6000000.00533
5999999.99978
6000000.00605
5999999.99623
5999999.99365
6000000.00367
6000000.00078
5999999.99945
5999999.99464
5999999.99644
6000000.0027
5999999.99602
5999999.99834
6000000.00211
5999999.99893
6000000.00296
6000000.00713
6000000.00319
5999999.9985
5999999.99526
5999999.99724
6000000.00583
6000000.00223
5999999.99564
5999999.99722
6000000.00085
6000000.00619
6000000.00099
5999999.99895
5999999.99976
6000000.00161
5999999.99859
5999999.99908
6000000.00346
6000000.00176
5999999.99696
6000000.00266
5999999.99667
5999999.9996
5999999.99736
6000000.00046
6000000.00204
5999999.99411
5999999.99999
6000000.00109
5999999.99417
5999999.99747
6000000.00293
5999999.99811
5999999.9981
6000000.00257
5999999.99834
5999999.99657
5999999.99561
5999999.99808
5999999.99586
5999999.99931
5999999.99795
6000000.00682
5999999.99765
6000000.00037
6000000.00529
5999999.99857
6000000.00159
5999999.99995
6000000.00854
5999999.99713
6000000.00077
6000000.00632
6000000.00688
5999999.99893
5999999.99799
6000000.01001
6000000.00783
6000000.00612
5999999.99805
5999999.99797
6000000.00805
6000000.00843
6000000.0018
6000000.00673
6000000.00232
5999999.99498
6000000.00675
6000000.00787
6000000.00015
5999999.99727
6000000.00747
6000000.00259
5999999.99406
6000000.0024
6000000.00219
6000000.00913
6000000.00772
5999999.99763
6000000.00228
6000000.00716
5999999.99614
5999999.99942
6000000.00646
6000000.00923
6000000.00052
6000000.00631
6000000.00559
6000000.00491
5999999.99798
6000000.00125
6000000.00839
6000000.00951
6000000.01009
6000000.003
6000000.00295
6000000.0064
6000000.01032
5999999.99968
6000000.00291
6000000.00577
5999999.99658
6000000.00578
6000000.00521
6000000.00987
6000000.0042
6000000.00741
6000000.00574
5999999.99355
6000000.00684
6000000.00216
5999999.99851
6000000.00876
5999999.99878
5999999.9998
5999999.9986
6000000.0004
5999999.99832
5999999.99958
5999999.99893
5999999.9995
5999999.99925
5999999.99951
5999999.99721
5999999.99773
5999999.99956
5999999.99814
6000000.00023
5999999.99824
5999999.99871
5999999.99823
6000000.00012
5999999.99792
5999999.99742
5999999.9985
5999999.99966
5999999.99858
5999999.99865
5999999.99954
5999999.99751
5999999.99848
5999999.99928
5999999.99576
5999999.99837
6000000.0002
5999999.99912
5999999.99671
5999999.99939
5999999.99747
5999999.99991
5999999.9989
5999999.99871
5999999.99678
5999999.99904
6000000.00004
5999999.99784
5999999.99942
5999999.99962
5999999.99868
5999999.99881
5999999.99915
5999999.99664
5999999.99685
5999999.99938
5999999.99991
6000000.00021
6000000.0006
5999999.9983
5999999.999
5999999.99787
5999999.99831
5999999.99829
5999999.99871
5999999.99957
6000000.00041
6000000.00208
5999999.99832
5999999.99935
5999999.99942
5999999.99987
5999999.99969
6000000.00066
5999999.9998
5999999.99952
6000000.00034
5999999.99969
5999999.99973
5999999.99973
5999999.99977
6000000.00051
6000000.00006
5999999.99979
5999999.9996
6000000.00032
6000000.00034
5999999.99979
6000000.00033
5999999.99989
6000000.00037
5999999.99991
5999999.99984
6000000.00021
5999999.99997
6000000.00043
5999999.99992
6000000.00006
5999999.99953
6000000.0003
6000000.00046
6000000.00026
6000000.00054
6000000.00001
6000000.00055
6000000.0005
5999999.99976
6000000.00013
5999999.99988
6000000.00032
6000000.00009
5999999.99975
6000000.0007
6000000.00024
6000000.00049
6000000.0003
5999999.9996
5999999.99981
5999999.99972
6000000.00015
6000000.00006
6000000.0004
6000000.00043
5999999.99969
6000000.00002
6000000.00024
6000000.00003
6000000.00031
6000000.00019
6000000.00026
6000000.00042
5999999.99972
6000000.00049
6000000.00071
6000000.00099
6000000.0009
6000000.00109
6000000.00057
6000000.00101
6000000.00085
6000000.00119
6000000.0008
6000000.00078
6000000.00084
6000000.00087
6000000.00084
6000000.00081
6000000.00089
6000000.00097
6000000.00076
6000000.00091
6000000.0011
6000000.00089
6000000.00106
6000000.00115
6000000.00071
6000000.00101
6000000.00096
6000000.00089
6000000.00071
6000000.00057
6000000.00102
6000000.00086
6000000.00087
6000000.00088
6000000.00087
6000000.00115
6000000.00076
6000000.00093
6000000.0007
6000000.00081
6000000.00063
6000000.00085
6000000.001
6000000.00104
6000000.00095
6000000.00092
6000000.00089
6000000.00091
6000000.00079
6000000.00101
6000000.00115
6000000.00122
6000000.00075
6000000.00086
6000000.0008
6000000.00095
6000000.00094
6000000.00094
6000000.00097
6000000.00099
6000000.00097
6000000.00099
6000000.00091
6000000.00119
6000000.00135
6000000.00087
5999999.99901
5999999.99873
5999999.99881
5999999.999
5999999.99877
5999999.99918
5999999.99884
5999999.99879
5999999.99871
5999999.99876
5999999.99886
5999999.99901
5999999.99903
5999999.99884
5999999.99861
5999999.99878
5999999.99877
5999999.99899
5999999.99889
5999999.99904
5999999.99878
5999999.99877
5999999.99916
5999999.99897
5999999.99876
5999999.99892
5999999.99935
5999999.99874
5999999.99898
5999999.99908
5999999.99901
5999999.99942
5999999.99911
5999999.99908
5999999.9989
5999999.9989
5999999.99913
5999999.99869
5999999.99862
5999999.9987
5999999.99906
5999999.99909
5999999.99885
5999999.99901
5999999.99894
5999999.99897
5999999.99926
5999999.99905
5999999.99883
5999999.99899
5999999.99888
5999999.99869
5999999.99884
5999999.99865
5999999.99892
5999999.99888
5999999.99897
5999999.99897
5999999.99888
5999999.99889
5999999.99883
5999999.99903
5999999.99882
5999999.99889
5999999.99945
5999999.9993
5999999.99949
5999999.99978