/*--------------------------------*- C++ -*----------------------------------*\
  =========                 |
  \\      /  F ield         | OpenFOAM: The Open Source CFD Toolbox
   \\    /   O peration     | Website:  https://openfoam.org
    \\  /    A nd           | Version:  6
     \\/     M anipulation  |
\*---------------------------------------------------------------------------*/
FoamFile
{
    version     2.0;
    format      ascii;
    class       volVectorField;
    location    "4.83e-05";
    object      U;
}
// * * * * * * * * * * * * * * * * * * * * * * * * * * * * * * * * * * * * * //

dimensions      [0 1 -1 0 0 0 0];

internalField   nonuniform List<vector> 
8192
(
(-88.322 0 -2.83306297565e-10)
(-88.3219999996 0 -8.35093906543e-11)
(-88.3220000002 0 -7.01050607009e-11)
(-88.3220000003 0 -2.79963241451e-10)
(-88.3219999995 0 -6.40191594046e-11)
(-88.3219999997 0 5.32542578293e-12)
(-88.3220000003 0 -1.9668417353e-12)
(-88.322 0 1.13939583182e-10)
(-88.322 0 -2.68183955119e-10)
(-88.322 0 -5.80879939496e-10)
(-88.3219999999 0 -7.25268950572e-10)
(-88.322 0 3.69902950933e-10)
(-88.3220000002 0 6.66042902622e-10)
(-88.322 0 -7.62609225142e-10)
(-88.3219999998 0 -6.26788503606e-10)
(-88.3219999999 0 3.65207157613e-10)
(-88.3219999998 0 3.09805059916e-10)
(-88.3219999999 0 6.71031900294e-10)
(-88.3220000002 0 -4.2487121309e-10)
(-88.322 0 -5.78963635617e-10)
(-88.3219999996 0 2.62219273119e-10)
(-88.3220000004 0 3.87701710784e-10)
(-88.3220000003 0 -6.17868896168e-10)
(-88.3219999998 0 -5.74353352544e-10)
(-88.322 0 1.75120042263e-10)
(-88.3219999999 0 1.85296989627e-10)
(-88.3219999999 0 2.31736591106e-10)
(-88.3219999999 0 1.94791054662e-10)
(-88.3220000002 0 3.14391161425e-10)
(-88.3220000002 0 -1.62244262089e-10)
(-88.322 0 2.19531822895e-10)
(-88.3219999996 0 -5.80492909821e-11)
(-88.3219999989 0 1.27217373708e-10)
(-88.3220000019 0 5.509873786e-10)
(-88.3220000027 0 -8.5861899758e-10)
(-88.3219999987 0 -6.36797717099e-10)
(-88.3219999995 0 -1.24370731482e-11)
(-88.3219999996 0 -5.68291141641e-10)
(-88.3219999986 0 1.69852626707e-10)
(-88.3220000006 0 1.78193107639e-10)
(-88.3220000001 0 -5.95780454954e-11)
(-88.3219999998 0 6.50231233281e-11)
(-88.3220000002 0 -1.4217729294e-11)
(-88.322 0 -1.52123769655e-11)
(-88.322 0 -5.86239427951e-11)
(-88.322 0 -3.80874838175e-11)
(-88.322 0 -1.97974541557e-11)
(-88.322 0 -1.94037934178e-11)
(-88.3220000001 0 2.93368829549e-11)
(-88.3219999998 0 -9.65587331974e-11)
(-88.3219999999 0 1.30120106339e-10)
(-88.3220000006 0 -6.33031115987e-11)
(-88.3219999994 0 -2.12697325297e-10)
(-88.3219999993 0 3.49103445334e-10)
(-88.3220000012 0 1.91662444065e-10)
(-88.3220000006 0 -2.0784805889e-10)
(-88.322 0 -3.08527198242e-11)
(-88.3219999998 0 -1.75595901759e-10)
(-88.3220000002 0 -4.30814201582e-11)
(-88.3219999991 0 -3.1052556886e-10)
(-88.3219999984 0 3.44578221221e-10)
(-88.3219999998 0 3.96418985737e-10)
(-88.3220000009 0 3.62534444446e-10)
(-88.3220000014 0 -3.18458574592e-11)
(-88.3220000001 0 -3.3706434261e-10)
(-88.3219999999 0 -9.02784276776e-11)
(-88.3220000002 0 1.31403739141e-10)
(-88.3219999997 0 1.51649633416e-11)
(-88.322 0 2.58319736442e-10)
(-88.3220000002 0 -1.20268786392e-10)
(-88.3219999995 0 5.24012295321e-11)
(-88.3220000006 0 4.50048042115e-12)
(-88.3220000013 0 -8.12659913855e-12)
(-88.3220000008 0 -6.3297591044e-11)
(-88.3219999982 0 7.04629053904e-11)
(-88.3219999972 0 -2.47896447799e-10)
(-88.322000002 0 -2.51378142262e-11)
(-88.3220000025 0 -1.86529434925e-10)
(-88.3219999979 0 -3.17159689269e-10)
(-88.3219999983 0 3.11520765293e-10)
(-88.3219999996 0 2.35941305159e-10)
(-88.3220000017 0 1.50362112889e-10)
(-88.3220000023 0 -3.43203629694e-10)
(-88.3219999988 0 -1.95650298021e-10)
(-88.3219999984 0 -6.04161898444e-11)
(-88.3220000014 0 -1.79263625519e-11)
(-88.3220000016 0 2.09291613471e-10)
(-88.3219999987 0 -6.96749989347e-11)
(-88.3219999985 0 4.47954494686e-10)
(-88.322 0 -1.9380874708e-10)
(-88.3220000001 0 3.14036997251e-10)
(-88.3219999999 0 2.99951814409e-10)
(-88.3220000005 0 -7.49373340206e-11)
(-88.322 0 9.81853668368e-12)
(-88.3219999998 0 7.91750495416e-11)
(-88.3220000005 0 2.3968831384e-11)
(-88.3219999998 0 -2.3718794978e-10)
(-88.3220000003 0 -4.67968191198e-10)
(-88.322 0 5.71960643512e-10)
(-88.3219999995 0 6.4984348782e-10)
(-88.3220000002 0 6.34146849337e-12)
(-88.322 0 3.08609950656e-10)
(-88.322 0 -1.6871966917e-10)
(-88.322 0 -2.25746689482e-10)
(-88.322 0 1.61196108142e-10)
(-88.322 0 -9.13610474e-11)
(-88.322 0 7.38305105235e-11)
(-88.322 0 -2.05586405473e-10)
(-88.322 0 -3.99858496379e-10)
(-88.322 0 -3.42728443829e-10)
(-88.322 0 -3.3271011843e-10)
(-88.322 0 -4.07178912981e-10)
(-88.322 0 -3.78524435858e-10)
(-88.322 0 -8.35430938844e-11)
(-88.322 0 3.09655143527e-10)
(-88.3220000001 0 -9.40165051435e-11)
(-88.3219999998 0 6.07551754597e-11)
(-88.322 0 -1.08419467598e-10)
(-88.3220000001 0 -2.91850262231e-10)
(-88.3219999999 0 4.16398369849e-10)
(-88.322 0 -1.81846128306e-10)
(-88.3220000001 0 -1.62106926766e-10)
(-88.322 0 -3.83910049038e-10)
(-88.3219999999 0 9.07706814491e-10)
(-88.322 0 3.43439157484e-10)
(-88.3220000001 0 -8.12697781353e-10)
(-88.3220000002 0 -1.10784472083e-09)
(-88.322 0 -4.50853271616e-10)
(-88.3219999993 0 7.8198882119e-11)
(-88.3219999988 0 1.07699868646e-10)
(-88.322 0 -3.2780535658e-11)
(-88.3220000001 0 2.02872243836e-10)
(-88.3219999999 0 -1.64458953538e-10)
(-88.322 0 1.50267628806e-10)
(-88.322 0 -4.5768265171e-11)
(-88.322 0 -1.08853845218e-10)
(-88.3220000002 0 2.38257096322e-10)
(-88.3219999998 0 5.41109626247e-10)
(-88.3220000003 0 6.8440927146e-10)
(-88.3220000002 0 -2.58296898832e-10)
(-88.322 0 -5.68091237188e-10)
(-88.3220000005 0 5.43934755339e-10)
(-88.3219999988 0 5.62884728196e-10)
(-88.3219999987 0 -3.86362337609e-10)
(-88.3220000001 0 -3.1600701187e-10)
(-88.322000001 0 -6.01856060752e-10)
(-88.3220000009 0 4.57970969143e-10)
(-88.3219999994 0 5.35629146485e-10)
(-88.3219999993 0 -2.22093352656e-10)
(-88.3219999998 0 -2.13813721926e-10)
(-88.3220000004 0 5.85311867188e-10)
(-88.3219999994 0 5.70843920097e-10)
(-88.3220000003 0 -9.2359176963e-11)
(-88.322 0 -1.70990840202e-10)
(-88.3219999989 0 -9.4592510419e-11)
(-88.3220000008 0 1.02002922209e-10)
(-88.3220000008 0 -8.82698417304e-11)
(-88.3219999999 0 5.85060279273e-11)
(-88.3219999999 0 8.67066878727e-11)
(-88.3220000004 0 -4.80857982214e-12)
(-88.322 0 -4.83318635354e-10)
(-88.322 0 4.57815411664e-10)
(-88.3220000002 0 6.47262103455e-10)
(-88.322 0 -4.26461021615e-10)
(-88.3220000003 0 -7.17427791911e-10)
(-88.322 0 8.4814586041e-10)
(-88.3219999997 0 4.23019727497e-10)
(-88.3219999999 0 -3.65934491361e-10)
(-88.322 0 -4.56505000553e-10)
(-88.322 0 2.01048814078e-10)
(-88.3220000004 0 -2.88356061129e-10)
(-88.3220000011 0 -6.74187941841e-11)
(-88.3220000003 0 -3.59540657024e-10)
(-88.3219999998 0 6.20843653915e-11)
(-88.3220000001 0 -6.23246050113e-10)
(-88.3219999999 0 -5.99828130095e-10)
(-88.3219999994 0 5.2286733879e-10)
(-88.3219999985 0 2.42316946134e-11)
(-88.322 0 -4.18231210799e-10)
(-88.3220000011 0 1.8268418336e-10)
(-88.3219999994 0 -4.55592792053e-10)
(-88.3219999999 0 4.22820743671e-10)
(-88.322 0 8.19358279135e-11)
(-88.3220000004 0 -3.54107591171e-10)
(-88.3220000012 0 -3.87336103247e-10)
(-88.3220000003 0 -4.12202767581e-10)
(-88.3219999981 0 -1.68959796224e-10)
(-88.3219999978 0 -2.00465931117e-10)
(-88.3220000019 0 -1.62431276843e-10)
(-88.3220000028 0 8.69000010632e-11)
(-88.3220000001 0 5.98696156911e-11)
(-88.3219999999 0 8.27479216941e-11)
(-88.322 0 6.48052119672e-10)
(-88.3220000001 0 1.93927097043e-10)
(-88.322 0 -6.04849318889e-11)
(-88.322 0 1.66638396246e-10)
(-88.322 0 -2.02828818616e-10)
(-88.322 0 4.14131074213e-11)
(-88.322 0 1.49237375398e-11)
(-88.322 0 3.88885097595e-11)
(-88.322 0 3.23224224793e-11)
(-88.322 0 9.83222903054e-11)
(-88.3219999998 0 -3.61093217008e-11)
(-88.3219999997 0 1.71433858002e-10)
(-88.3220000005 0 -1.65379133767e-11)
(-88.3220000002 0 4.13642811209e-10)
(-88.3219999998 0 3.56586462709e-10)
(-88.322 0 -3.01429044006e-10)
(-88.322 0 -2.25835384935e-10)
(-88.322 0 -3.00878973477e-10)
(-88.322 0 5.18504860448e-10)
(-88.322 0 4.58892053155e-10)
(-88.322 0 -5.20810174605e-10)
(-88.3219999999 0 -5.07018079624e-10)
(-88.322 0 3.2791644862e-10)
(-88.322 0 5.24135866992e-10)
(-88.322 0 -2.14213980228e-10)
(-88.322 0 5.8777454084e-10)
(-88.3219999995 0 -1.96001560782e-10)
(-88.3219999999 0 5.00856572336e-11)
(-88.3220000006 0 -1.03127631284e-10)
(-88.3219999997 0 -2.82392989753e-10)
(-88.3219999999 0 1.02483136327e-10)
(-88.3220000015 0 -9.24809674143e-11)
(-88.3219999989 0 6.7129961095e-12)
(-88.3219999982 0 -9.16430153949e-11)
(-88.3220000017 0 4.52415672755e-11)
(-88.3220000022 0 9.70285019224e-11)
(-88.3219999977 0 -7.80319822411e-11)
(-88.3219999978 0 3.74419486778e-10)
(-88.3220000023 0 -2.82701539022e-11)
(-88.3220000017 0 4.16539923169e-11)
(-88.3219999988 0 -7.98658722657e-11)
(-88.3219999998 0 -1.82598302477e-12)
(-88.3220000005 0 -9.35389674634e-11)
(-88.3220000002 0 2.07414418787e-10)
(-88.3219999997 0 4.3023196129e-10)
(-88.3220000005 0 3.40700062265e-10)
(-88.3220000013 0 3.58376120157e-10)
(-88.3219999977 0 2.79531233046e-10)
(-88.3219999989 0 5.33695106364e-10)
(-88.3220000018 0 1.97886480869e-10)
(-88.3219999998 0 -3.72683149666e-10)
(-88.3220000002 0 1.09947623949e-10)
(-88.3219999992 0 -2.10233231191e-10)
(-88.321999999 0 2.39561680505e-10)
(-88.3220000016 0 5.8591676415e-10)
(-88.3220000008 0 -5.51846327175e-10)
(-88.3220000001 0 -1.79775765321e-10)
(-88.3219999997 0 4.39959738075e-10)
(-88.3219999996 0 4.99010703175e-11)
(-88.3219999998 0 -4.85158468601e-10)
(-88.3219999995 0 -1.08569397283e-09)
(-88.3219999998 0 8.48662380238e-10)
(-88.3220000001 0 1.001846418e-09)
(-88.322 0 7.76884103555e-10)
(-88.3220000005 0 -3.17543522838e-10)
(-88.3220000001 0 -1.31801626438e-10)
(-88.322 0 2.5069354308e-10)
(-88.3220000004 0 -4.08215753416e-11)
(-88.322 0 -6.13151383845e-11)
(-88.3219999996 0 -9.55750331969e-12)
(-88.322 0 -2.29713334808e-12)
(-88.322 0 3.70228233492e-11)
(-88.322 0 1.7658455078e-11)
(-88.322 0 -8.15050613767e-12)
(-88.3220000001 0 7.10473822366e-11)
(-88.3220000002 0 -2.78101531119e-10)
(-88.3219999996 0 -2.92110293106e-10)
(-88.3219999999 0 4.49060930041e-11)
(-88.3220000003 0 -2.74477075155e-11)
(-88.322 0 3.67015600577e-11)
(-88.3220000002 0 1.64633480004e-10)
(-88.3219999995 0 1.58503071302e-10)
(-88.3219999994 0 -2.60465621016e-11)
(-88.3220000015 0 -2.39640150373e-12)
(-88.3220000012 0 3.26750550681e-11)
(-88.3219999981 0 3.2624456987e-11)
(-88.3219999984 0 8.5278094006e-11)
(-88.3220000005 0 -1.27479512971e-10)
(-88.3220000001 0 1.38902362171e-10)
(-88.322 0 4.45118988417e-12)
(-88.3219999999 0 2.6600608502e-10)
(-88.3220000005 0 2.88659949119e-10)
(-88.3220000013 0 3.76616684655e-10)
(-88.3219999994 0 -3.3077510207e-11)
(-88.3219999995 0 1.46903578309e-10)
(-88.3220000004 0 4.07543878696e-10)
(-88.3220000001 0 -3.47207831345e-11)
(-88.322 0 -5.50516105491e-10)
(-88.3219999998 0 -7.70740186436e-10)
(-88.3220000002 0 2.15361053144e-10)
(-88.3219999997 0 8.95461383682e-10)
(-88.3219999999 0 -1.10338041006e-09)
(-88.3220000003 0 -2.86585469667e-10)
(-88.322 0 1.53777385976e-10)
(-88.322 0 3.9852632053e-10)
(-88.322 0 -1.68865821572e-10)
(-88.322 0 2.46206287429e-10)
(-88.322 0 7.56891167555e-11)
(-88.322 0 3.29644083173e-10)
(-88.322 0 -4.73619903064e-11)
(-88.3220000002 0 6.19771153541e-10)
(-88.3219999997 0 5.13350791447e-10)
(-88.3219999996 0 -4.51987785337e-10)
(-88.3220000004 0 -1.37496949549e-10)
(-88.3220000001 0 3.12572058438e-10)
(-88.3220000008 0 3.729062412e-12)
(-88.3219999993 0 3.65359250419e-10)
(-88.3219999984 0 -4.38538803918e-10)
(-88.3220000015 0 -7.87842267089e-11)
(-88.3220000019 0 -2.44650725249e-10)
(-88.3219999992 0 1.83018756577e-10)
(-88.3219999999 0 1.13741304126e-10)
(-88.3219999998 0 -3.00404122303e-10)
(-88.3220000001 0 8.02312080843e-10)
(-88.3219999992 0 6.81826810082e-10)
(-88.3219999985 0 4.07091891572e-10)
(-88.3220000002 0 1.66249867074e-10)
(-88.3220000004 0 -2.44025740413e-11)
(-88.3220000002 0 -1.18970703649e-10)
(-88.321999999 0 -2.31239871596e-10)
(-88.322 0 4.32429422437e-10)
(-88.3220000005 0 6.40689263069e-10)
(-88.3219999999 0 1.82251496538e-12)
(-88.3219999999 0 4.35345412772e-10)
(-88.322 0 3.25106654844e-10)
(-88.322 0 -4.50036038322e-10)
(-88.322 0 2.09559184947e-11)
(-88.3219999998 0 9.54482889247e-11)
(-88.3220000003 0 -5.22842087549e-11)
(-88.3220000004 0 2.01865883783e-10)
(-88.3219999998 0 1.92204905038e-10)
(-88.3219999998 0 -5.55532745822e-10)
(-88.3219999998 0 5.10697713649e-10)
(-88.3219999997 0 4.1675122055e-10)
(-88.3219999997 0 5.52114309549e-10)
(-88.3220000004 0 1.18253889399e-10)
(-88.3220000003 0 -7.287275275e-10)
(-88.322 0 -2.56872175281e-10)
(-88.3219999998 0 9.20624441534e-10)
(-88.3219999998 0 1.11412578523e-09)
(-88.3220000004 0 -6.54425877662e-10)
(-88.3219999999 0 -6.36859609338e-10)
(-88.3219999998 0 -4.6834009369e-10)
(-88.3219999998 0 -9.50334740315e-11)
(-88.321999999 0 1.18437295705e-10)
(-88.3219999996 0 -4.79146801015e-10)
(-88.3220000014 0 5.47967913791e-10)
(-88.3220000001 0 7.62969894672e-10)
(-88.321999999 0 -1.34296226708e-10)
(-88.322000002 0 -3.67202199709e-10)
(-88.3220000007 0 1.00076880154e-10)
(-88.3219999995 0 1.79848280384e-10)
(-88.3220000002 0 1.2271788232e-10)
(-88.3219999989 0 -1.32459255551e-10)
(-88.3220000003 0 -6.55156710427e-12)
(-88.322 0 -5.93840700629e-11)
(-88.3219999999 0 4.34398114552e-12)
(-88.3220000003 0 6.41567556532e-11)
(-88.3219999996 0 4.97412671786e-11)
(-88.322 0 -2.6178617472e-11)
(-88.322 0 1.95939606375e-11)
(-88.322 0 1.09392531193e-11)
(-88.322 0 9.14205601356e-12)
(-88.322 0 1.03152467847e-11)
(-88.3220000002 0 -8.63127737369e-11)
(-88.3219999998 0 3.08236338551e-10)
(-88.3220000002 0 -2.24414044664e-10)
(-88.3220000002 0 -7.77049096271e-11)
(-88.3219999995 0 -2.1206357232e-11)
(-88.3220000002 0 1.21940180082e-10)
(-88.3220000001 0 2.90672170145e-10)
(-88.3219999998 0 -4.29198227684e-10)
(-88.3220000012 0 -4.84039550604e-10)
(-88.3220000002 0 3.03594847833e-10)
(-88.3219999994 0 3.69571783672e-10)
(-88.3220000007 0 5.09923529906e-11)
(-88.3219999982 0 4.16155271838e-10)
(-88.3219999978 0 -9.32872199587e-11)
(-88.3220000002 0 4.93420662588e-10)
(-88.3220000007 0 -2.53178643423e-10)
(-88.3220000009 0 -7.87690961388e-11)
(-88.3220000009 0 -2.60048089557e-10)
(-88.3220000004 0 5.03363203177e-10)
(-88.321999999 0 2.14628783642e-11)
(-88.3219999983 0 -3.07414159583e-10)
(-88.3220000013 0 5.3506028387e-11)
(-88.3220000004 0 3.25947947613e-11)
(-88.3219999989 0 5.33147885784e-11)
(-88.3220000019 0 -9.46346352452e-11)
(-88.3220000006 0 6.25030536118e-11)
(-88.321999999 0 -1.81974739706e-10)
(-88.3220000002 0 -1.70954270368e-10)
(-88.3219999998 0 4.0818816175e-10)
(-88.3219999997 0 -3.81138905631e-10)
(-88.3220000012 0 -3.23941367201e-10)
(-88.3219999992 0 -6.0107617244e-11)
(-88.3219999983 0 -1.22037188826e-10)
(-88.3219999999 0 1.4126396452e-11)
(-88.3220000008 0 -2.69662412937e-10)
(-88.3220000021 0 -1.333476312e-10)
(-88.322 0 4.09301860017e-11)
(-88.3219999982 0 -3.21564009778e-12)
(-88.3219999985 0 -2.09379264014e-12)
(-88.3220000012 0 -3.71138520761e-11)
(-88.3220000019 0 2.29863708028e-12)
(-88.322 0 -2.62444385247e-11)
(-88.321999999 0 -7.78305534583e-11)
(-88.3219999989 0 4.87407149517e-11)
(-88.3220000007 0 -3.42160280619e-10)
(-88.3219999996 0 -3.63471269986e-10)
(-88.3219999989 0 -6.0184000758e-10)
(-88.3220000008 0 3.24538843644e-10)
(-88.3220000018 0 -4.6518517526e-10)
(-88.322 0 -3.80984585784e-10)
(-88.3219999989 0 8.3218488902e-10)
(-88.3219999999 0 2.05631905488e-10)
(-88.3220000005 0 -1.20548667643e-10)
(-88.3220000005 0 -4.78679339589e-10)
(-88.3219999996 0 -1.42714890047e-10)
(-88.3219999999 0 6.3651730057e-10)
(-88.322 0 -1.90460625173e-10)
(-88.3219999999 0 -8.03923513909e-11)
(-88.3220000001 0 5.44309361373e-11)
(-88.322 0 9.18574303328e-11)
(-88.322 0 -2.11749965915e-10)
(-88.322 0 6.91650201221e-11)
(-88.322 0 3.89189755566e-11)
(-88.3220000001 0 1.15464727176e-11)
(-88.3219999996 0 -9.82354658372e-12)
(-88.322 0 -4.40072875834e-11)
(-88.3220000004 0 3.29154007993e-11)
(-88.3219999999 0 -4.19578891528e-11)
(-88.3219999998 0 1.26959581447e-10)
(-88.3220000002 0 -4.67709198566e-11)
(-88.3220000003 0 6.32328619647e-11)
(-88.3219999998 0 -6.77496711619e-11)
(-88.322 0 4.79387284879e-11)
(-88.3220000002 0 3.2161792706e-10)
(-88.3219999998 0 9.21147817604e-12)
(-88.3219999998 0 9.999779557e-11)
(-88.3220000002 0 4.83239321929e-10)
(-88.3219999999 0 -5.27430430589e-10)
(-88.3219999997 0 -4.98626896258e-10)
(-88.3219999997 0 4.10535162249e-11)
(-88.3220000002 0 2.664374787e-10)
(-88.3220000005 0 -1.00735263116e-10)
(-88.322 0 9.86091414197e-11)
(-88.3220000005 0 2.23287548819e-10)
(-88.3219999998 0 -4.03924901506e-10)
(-88.3219999999 0 -6.69442856009e-10)
(-88.3219999999 0 1.88861540574e-10)
(-88.3220000002 0 -4.41741823054e-10)
(-88.3219999999 0 -3.5682487601e-10)
(-88.3220000001 0 4.44379611449e-10)
(-88.3220000005 0 -3.82904095664e-11)
(-88.3219999986 0 -1.21858570923e-10)
(-88.3220000008 0 8.56776046301e-11)
(-88.3220000019 0 -1.88182579654e-10)
(-88.3219999992 0 -1.054476029e-10)
(-88.3219999993 0 3.94710066207e-10)
(-88.3219999996 0 -5.0865988147e-10)
(-88.322 0 -3.61724017002e-10)
(-88.322 0 -5.36455161993e-10)
(-88.3219999998 0 1.19574481589e-11)
(-88.3220000001 0 4.75870013282e-10)
(-88.322 0 2.57654828328e-11)
(-88.3219999999 0 -3.88568764505e-10)
(-88.3219999998 0 -7.34025072464e-10)
(-88.3220000004 0 2.14210315792e-10)
(-88.322 0 1.94639299374e-10)
(-88.3219999996 0 2.50913156578e-10)
(-88.3220000003 0 -2.73927434358e-10)
(-88.3219999998 0 -3.03512355311e-10)
(-88.3220000002 0 7.21021161528e-11)
(-88.322 0 -5.17248872193e-10)
(-88.322 0 -4.93706775187e-10)
(-88.3220000003 0 -9.34857880736e-11)
(-88.3219999994 0 4.2007520897e-10)
(-88.3219999997 0 -8.50333155535e-11)
(-88.3220000014 0 -1.00380180433e-10)
(-88.3220000016 0 -1.18784414983e-10)
(-88.321999999 0 -5.37601653354e-11)
(-88.321999998 0 2.37720423694e-10)
(-88.3220000001 0 -5.42624480294e-11)
(-88.3220000013 0 9.57956592507e-11)
(-88.3219999999 0 -3.71331893515e-11)
(-88.3219999992 0 -2.57921178342e-11)
(-88.3220000006 0 4.50902694774e-11)
(-88.322 0 -1.12170158216e-11)
(-88.3219999995 0 -1.29945163972e-11)
(-88.3220000001 0 -4.62676500167e-11)
(-88.3220000001 0 -2.33061283862e-11)
(-88.3220000002 0 4.91825607985e-11)
(-88.3219999998 0 -2.02349182806e-10)
(-88.3220000001 0 5.86211499614e-11)
(-88.322 0 1.26655496891e-10)
(-88.3219999995 0 -1.72950882632e-10)
(-88.3220000002 0 -2.0878763097e-10)
(-88.322 0 1.28384732001e-10)
(-88.3219999998 0 6.1078716857e-10)
(-88.3220000005 0 5.99498037024e-10)
(-88.3220000003 0 -2.80922136692e-10)
(-88.3219999999 0 -3.75162243173e-10)
(-88.3219999998 0 -2.50883009856e-10)
(-88.3219999995 0 -4.74182253743e-10)
(-88.3219999998 0 1.75423997062e-10)
(-88.3219999991 0 -4.46882222403e-10)
(-88.3219999993 0 3.56703934482e-10)
(-88.3220000013 0 -1.93216112677e-10)
(-88.3220000004 0 1.52910934122e-10)
(-88.3220000003 0 -3.07922392564e-10)
(-88.3220000001 0 2.6335423121e-11)
(-88.322 0 -5.02353545698e-11)
(-88.322 0 5.30428799966e-12)
(-88.322 0 -7.77980016692e-11)
(-88.322 0 9.36070523476e-11)
(-88.322 0 4.45724785205e-11)
(-88.322 0 -9.96011211575e-11)
(-88.3220000001 0 1.77222153184e-10)
(-88.322 0 1.61855884032e-10)
(-88.322 0 -4.82858394221e-10)
(-88.322 0 5.67732175276e-10)
(-88.322 0 5.40577704386e-10)
(-88.322 0 7.09430118736e-11)
(-88.322 0 1.21958649236e-10)
(-88.322 0 -4.29169009775e-11)
(-88.322 0 9.33478173274e-11)
(-88.322 0 -1.33042516398e-11)
(-88.322 0 -1.51013913473e-13)
(-88.322 0 1.52024300889e-11)
(-88.322 0 -2.6570616398e-11)
(-88.322 0 1.49027706331e-11)
(-88.322 0 -1.89699512918e-11)
(-88.322 0 1.80002654526e-10)
(-88.322 0 -7.24936798894e-11)
(-88.322 0 -4.55559243704e-11)
(-88.322 0 9.42848907144e-11)
(-88.322 0 -2.52930689077e-11)
(-88.322 0 4.82532337823e-11)
(-88.322 0 -2.14133655466e-10)
(-88.322 0 5.09473290032e-11)
(-88.322 0 -1.02812936105e-10)
(-88.322 0 -1.73506148151e-11)
(-88.322 0 1.95262324298e-10)
(-88.3220000004 0 -1.86674536954e-10)
(-88.3219999999 0 1.74052729632e-10)
(-88.3219999996 0 -2.08479654269e-10)
(-88.3220000001 0 -7.4671657934e-10)
(-88.322 0 1.82349115391e-10)
(-88.322 0 3.24052763737e-10)
(-88.322 0 -3.6352764757e-11)
(-88.322 0 -9.10843785522e-11)
(-88.322 0 2.16406628323e-10)
(-88.322 0 -9.97255998103e-11)
(-88.322 0 -3.61267878971e-11)
(-88.322 0 -2.91494653794e-11)
(-88.322 0 -6.72576271377e-11)
(-88.322 0 1.58227592003e-10)
(-88.3219999998 0 -1.26933675117e-11)
(-88.3220000003 0 2.16246861787e-10)
(-88.3220000004 0 -5.8496182391e-11)
(-88.3219999995 0 -8.30837378044e-11)
(-88.3219999987 0 -1.86405917559e-10)
(-88.3219999989 0 7.0667772423e-11)
(-88.3220000019 0 1.36809952633e-10)
(-88.3220000022 0 -2.41061740654e-10)
(-88.3219999996 0 -1.09153542877e-10)
(-88.322 0 -3.75899049372e-11)
(-88.3219999993 0 -1.22471859178e-10)
(-88.3219999998 0 6.07993797855e-11)
(-88.3219999993 0 5.99584925664e-11)
(-88.3219999992 0 -1.03921177303e-09)
(-88.3220000006 0 -9.0100514563e-10)
(-88.322 0 -2.4106766581e-10)
(-88.3219999996 0 1.52462527768e-10)
(-88.3220000001 0 1.24453119467e-10)
(-88.3219999999 0 -1.75123512581e-10)
(-88.322 0 -5.74550709845e-11)
(-88.3219999997 0 8.187242275e-11)
(-88.3219999999 0 6.26200969717e-11)
(-88.3220000003 0 -1.43414423522e-10)
(-88.3219999999 0 -1.60880203749e-10)
(-88.322 0 -3.37387383598e-11)
(-88.322 0 -7.95126367162e-11)
(-88.322 0 1.56034723914e-11)
(-88.3219999999 0 -3.31512750419e-11)
(-88.3220000002 0 -1.40142879985e-11)
(-88.3220000001 0 -2.32272448773e-11)
(-88.3219999998 0 -3.41619952687e-11)
(-88.322 0 -4.39766949463e-11)
(-88.322 0 -4.11787002139e-11)
(-88.322 0 -3.99182241913e-12)
(-88.322 0 5.32685755126e-11)
(-88.322 0 -1.7164424699e-10)
(-88.3219999998 0 -7.39273441592e-11)
(-88.3219999998 0 5.31414306967e-10)
(-88.322 0 3.66102045953e-10)
(-88.3220000001 0 -4.77635825752e-10)
(-88.3220000001 0 -3.56093728122e-10)
(-88.322 0 -1.07525914184e-10)
(-88.3219999998 0 7.43052590397e-11)
(-88.3220000002 0 -1.79513650617e-10)
(-88.3220000003 0 1.38408831446e-10)
(-88.322 0 -1.53412949828e-10)
(-88.3220000001 0 -4.08952197536e-10)
(-88.3219999996 0 -3.25056955183e-10)
(-88.321999999 0 2.84847062741e-10)
(-88.3220000016 0 -4.37917097823e-10)
(-88.3220000016 0 -4.73959578954e-10)
(-88.3219999991 0 -4.18304481536e-10)
(-88.3219999998 0 4.56651772383e-10)
(-88.3219999994 0 3.38197622852e-10)
(-88.3219999991 0 -3.78331517772e-10)
(-88.3220000003 0 -2.43637787298e-10)
(-88.322 0 5.42407333968e-10)
(-88.322 0 1.24674122277e-10)
(-88.322 0 -3.66228769241e-10)
(-88.322 0 -5.81372518451e-10)
(-88.322 0 2.39866607304e-10)
(-88.3220000002 0 -2.42184378604e-10)
(-88.3219999999 0 -9.78228249145e-11)
(-88.3219999996 0 -5.19752633929e-10)
(-88.322 0 4.23530247357e-10)
(-88.3220000002 0 -1.36975301073e-10)
(-88.322 0 6.90984998496e-11)
(-88.3220000006 0 3.10923887677e-10)
(-88.3219999998 0 -4.23380041155e-10)
(-88.3219999992 0 -9.84280666358e-10)
(-88.3220000011 0 -1.1823711116e-09)
(-88.3220000008 0 -4.41776614489e-10)
(-88.3219999995 0 1.03456484494e-09)
(-88.3219999998 0 5.94059395947e-10)
(-88.3219999993 0 -7.66798029334e-11)
(-88.3219999994 0 -7.34058533681e-10)
(-88.3220000013 0 7.77916002075e-10)
(-88.3220000011 0 -3.6963827007e-11)
(-88.3219999996 0 -1.87365796186e-10)
(-88.3219999994 0 -3.6648422561e-11)
(-88.322 0 1.08840225991e-10)
(-88.3220000007 0 5.05014779087e-11)
(-88.3220000004 0 2.72458642919e-10)
(-88.3219999995 0 -2.35663709004e-10)
(-88.3219999998 0 1.9762880632e-10)
(-88.3220000005 0 -2.74125925974e-10)
(-88.3220000004 0 2.44057149238e-10)
(-88.3219999998 0 2.81271761722e-10)
(-88.322 0 -2.33628497465e-10)
(-88.3219999998 0 -4.25099751498e-10)
(-88.322 0 -1.33041105444e-10)
(-88.3220000001 0 -4.76972296037e-10)
(-88.322 0 -4.52550665489e-10)
(-88.322 0 -1.39975291425e-10)
(-88.322 0 7.40383104876e-11)
(-88.322 0 4.2568425694e-11)
(-88.322 0 1.08967292832e-10)
(-88.3219999999 0 -3.6946369778e-10)
(-88.3220000004 0 -7.42654192253e-10)
(-88.3220000002 0 3.37779381677e-10)
(-88.3219999986 0 3.28329979022e-10)
(-88.3219999991 0 7.85076422079e-10)
(-88.3220000021 0 -4.91351410959e-10)
(-88.3220000014 0 -4.77790255221e-10)
(-88.3219999993 0 3.15068993111e-10)
(-88.3219999992 0 3.01880153788e-10)
(-88.3220000001 0 2.98676992758e-10)
(-88.322 0 1.03332520701e-10)
(-88.322 0 3.40707451174e-10)
(-88.322000001 0 1.04174407962e-10)
(-88.3220000002 0 4.56250796794e-11)
(-88.3219999986 0 9.78909663497e-11)
(-88.3220000002 0 -1.44065447167e-10)
(-88.3220000015 0 -3.95950033568e-10)
(-88.3220000004 0 5.55603563414e-10)
(-88.321999998 0 8.24492085719e-10)
(-88.3219999981 0 5.26288754491e-10)
(-88.3220000017 0 7.59000620707e-10)
(-88.3220000011 0 -5.33405282753e-10)
(-88.3219999983 0 -4.77113893204e-11)
(-88.3219999993 0 3.46093327819e-11)
(-88.3220000018 0 -6.9534631401e-11)
(-88.3220000013 0 6.14639333497e-11)
(-88.3219999988 0 -1.06318367822e-10)
(-88.3219999993 0 5.05435294349e-11)
(-88.3220000006 0 -1.22940439673e-10)
(-88.3220000006 0 -3.09344912778e-10)
(-88.3219999988 0 2.47850552871e-10)
(-88.321999999 0 3.48967561521e-10)
(-88.3220000011 0 4.61131856771e-10)
(-88.3219999994 0 -3.4726807671e-10)
(-88.3220000005 0 -3.50317545977e-10)
(-88.3220000012 0 7.51242588865e-10)
(-88.3220000003 0 1.16487998359e-10)
(-88.3220000009 0 1.18147014978e-10)
(-88.3219999979 0 3.57273273693e-10)
(-88.3219999976 0 5.60200144561e-10)
(-88.3220000022 0 6.75748404017e-10)
(-88.3220000018 0 -2.52419438193e-10)
(-88.321999998 0 -4.19429883814e-10)
(-88.3219999979 0 -1.92737708381e-10)
(-88.3220000011 0 4.52440888427e-10)
(-88.3220000006 0 4.23917513963e-10)
(-88.3219999993 0 3.03809394608e-10)
(-88.322 0 -2.02376149876e-10)
(-88.3219999998 0 -2.21674913506e-10)
(-88.3220000004 0 1.43978419171e-10)
(-88.322 0 -2.61585558533e-11)
(-88.3219999998 0 -7.40851646227e-11)
(-88.3219999999 0 -1.24149056083e-10)
(-88.3219999992 0 1.41849724719e-10)
(-88.3220000009 0 1.14941908347e-10)
(-88.3220000014 0 4.23292423184e-11)
(-88.3219999998 0 -3.93507373362e-11)
(-88.322 0 -3.48284783167e-10)
(-88.3220000005 0 -2.54820970132e-11)
(-88.3219999996 0 -9.22294463036e-11)
(-88.321999999 0 -1.14958234583e-10)
(-88.3219999995 0 8.32789796615e-11)
(-88.3219999999 0 -1.19433091994e-10)
(-88.3220000008 0 -1.11186423212e-11)
(-88.3220000017 0 -2.5583405995e-12)
(-88.3219999987 0 -7.0263519598e-11)
(-88.3219999979 0 1.98158621674e-10)
(-88.3219999989 0 -2.46476020421e-13)
(-88.3220000015 0 -3.70190423297e-10)
(-88.3220000026 0 -2.36705136194e-10)
(-88.3219999986 0 3.3380537003e-10)
(-88.3219999985 0 4.78705706141e-10)
(-88.322 0 1.0753649112e-10)
(-88.3220000001 0 -4.78836683277e-11)
(-88.3220000001 0 1.83562676211e-10)
(-88.3220000003 0 -9.92306715862e-11)
(-88.3220000005 0 1.65259964707e-10)
(-88.3220000001 0 4.13257323092e-10)
(-88.322 0 3.22647470709e-10)
(-88.3219999999 0 -2.75508726814e-10)
(-88.3220000003 0 5.3852721577e-10)
(-88.3219999994 0 2.71010538642e-10)
(-88.3219999989 0 6.48747277867e-10)
(-88.3220000001 0 -5.14108143477e-10)
(-88.3220000015 0 -3.39843561397e-10)
(-88.3220000006 0 5.28101443022e-10)
(-88.3219999992 0 2.03204969216e-10)
(-88.322 0 -5.52881396553e-10)
(-88.322 0 -1.17563714331e-10)
(-88.3220000002 0 3.48729515376e-10)
(-88.322 0 6.08558624174e-10)
(-88.322 0 -4.11973773658e-10)
(-88.3220000009 0 2.36633124815e-10)
(-88.3219999992 0 6.79150127119e-11)
(-88.3219999983 0 5.31605578385e-10)
(-88.3219999996 0 -4.5101602618e-10)
(-88.3220000016 0 2.67781688923e-11)
(-88.3220000017 0 1.58850315541e-10)
(-88.3219999984 0 -5.82833258463e-10)
(-88.3219999989 0 1.17087776548e-10)
(-88.3220000005 0 7.88729408024e-10)
(-88.3220000006 0 7.59471475292e-10)
(-88.322 0 4.78317323282e-10)
(-88.321999999 0 -4.37392570236e-10)
(-88.3220000013 0 -6.11351069466e-10)
(-88.3220000013 0 5.16155187934e-10)
(-88.3219999994 0 5.08310380739e-10)
(-88.3219999996 0 -4.16173297712e-10)
(-88.322 0 -5.28680378039e-10)
(-88.3219999999 0 1.36374999998e-10)
(-88.322 0 -1.76417587851e-10)
(-88.322 0 -4.26687130781e-11)
(-88.322 0 1.29037358741e-10)
(-88.322 0 -2.28673368443e-10)
(-88.322 0 1.82488375616e-10)
(-88.322 0 -1.24540860515e-10)
(-88.322 0 1.51872672065e-10)
(-88.322 0 -2.33257226068e-10)
(-88.322 0 -1.45432559266e-10)
(-88.3220000002 0 -2.22949492957e-10)
(-88.3220000006 0 1.73990620722e-11)
(-88.3219999999 0 3.70771375618e-10)
(-88.3219999995 0 1.82261629058e-10)
(-88.3220000002 0 -1.42354039766e-10)
(-88.3219999997 0 -2.93385379918e-10)
(-88.322 0 1.49373761303e-10)
(-88.3220000002 0 2.03429700634e-10)
(-88.3219999997 0 -2.45491348532e-10)
(-88.322 0 4.16630512472e-10)
(-88.322 0 7.38627988932e-10)
(-88.3220000001 0 -3.15430647434e-10)
(-88.3219999997 0 -3.38456102665e-10)
(-88.3219999997 0 -8.09945920554e-10)
(-88.3220000006 0 4.03775172555e-10)
(-88.322 0 4.37195431141e-10)
(-88.3219999998 0 -3.42016417643e-10)
(-88.3220000002 0 -3.08580991413e-10)
(-88.322 0 -3.48148319728e-10)
(-88.322 0 -2.25665101871e-10)
(-88.322 0 -2.33937684605e-10)
(-88.322 0 -1.15577911324e-10)
(-88.322 0 1.20535511281e-10)
(-88.322 0 1.27079029781e-10)
(-88.3219999997 0 -1.5294080859e-10)
(-88.3220000003 0 3.67086218874e-10)
(-88.3220000003 0 -3.10965870889e-10)
(-88.3219999995 0 -7.29252868921e-10)
(-88.322 0 -5.73250592069e-10)
(-88.3219999997 0 -1.45335096511e-10)
(-88.3220000002 0 -5.03047856709e-11)
(-88.3220000005 0 -4.76958602391e-10)
(-88.3219999999 0 2.35879329862e-10)
(-88.322 0 3.66077951517e-10)
(-88.322 0 -3.82696383396e-10)
(-88.3220000003 0 6.66494712942e-11)
(-88.3220000001 0 -5.25267049426e-10)
(-88.3219999997 0 -4.60216057888e-10)
(-88.322 0 1.49764545838e-10)
(-88.3219999999 0 -8.18276587654e-10)
(-88.322 0 -4.94770481438e-10)
(-88.3219999999 0 -4.97045989872e-10)
(-88.3220000007 0 2.27297674597e-10)
(-88.3220000006 0 2.95118033971e-10)
(-88.3219999985 0 -5.86585023928e-10)
(-88.3219999991 0 -1.2615912158e-10)
(-88.3220000015 0 -5.01826647568e-10)
(-88.3220000003 0 2.70030270944e-10)
(-88.3219999998 0 -4.62293894086e-10)
(-88.3220000003 0 -9.09629199725e-10)