/*--------------------------------*- C++ -*----------------------------------*\
  =========                 |
  \\      /  F ield         | OpenFOAM: The Open Source CFD Toolbox
   \\    /   O peration     | Website:  https://openfoam.org
    \\  /    A nd           | Version:  6
     \\/     M anipulation  |
\*---------------------------------------------------------------------------*/
FoamFile
{
    version     2.0;
    format      ascii;
    class       volVectorField;
    location    "0";
    object      vorticity;
}
// * * * * * * * * * * * * * * * * * * * * * * * * * * * * * * * * * * * * * //

dimensions      [0 0 -1 0 0 0 0];

internalField   nonuniform List<vector> 
24576
(
(0 4.51103956942e-05 0)
(0 3.85461523024e-05 0)
(0 3.20770856702e-05 0)
(0 2.57650807208e-05 0)
(0 1.96712531809e-05 0)
(0 1.38541591135e-05 0)
(0 8.36978787718e-06 0)
(0 3.27123007135e-06 0)
(0 -1.39302478274e-06 0)
(0 -5.5773968457e-06 0)
(0 -9.24174814206e-06 0)
(0 -1.2351088965e-05 0)
(0 -1.487534084e-05 0)
(0 -1.6789904311e-05 0)
(0 -1.80768641041e-05 0)
(0 -1.87233060247e-05 0)
(0 -1.87233060247e-05 0)
(0 -1.80768641403e-05 0)
(0 -1.6789904311e-05 0)
(0 -1.48753408761e-05 0)
(0 -1.23510890373e-05 0)
(0 -9.24174821442e-06 0)
(0 -5.57739680952e-06 0)
(0 -1.39302474656e-06 0)
(0 3.27123003517e-06 0)
(0 8.36978794954e-06 0)
(0 1.38541590773e-05 0)
(0 1.96712531447e-05 0)
(0 2.57650806846e-05 0)
(0 3.20770856702e-05 0)
(0 3.85461523024e-05 0)
(0 4.5110395658e-05 0)
(0 5.17062782594e-05 0)
(0 5.8270521615e-05 0)
(0 6.47395882472e-05 0)
(0 7.10515931966e-05 0)
(0 7.71454207365e-05 0)
(0 8.29625148401e-05 0)
(0 8.84468860041e-05 0)
(0 9.35455965972e-05 0)
(0 9.82096987363e-05 0)
(0 0.000102394070727 0)
(0 0.000106058422168 0)
(0 0.000109167915706 0)
(0 0.000111692014721 0)
(0 0.000113606578265 0)
(0 0.000114893538022 0)
(0 0.000115539979906 0)
(0 0.000115539979906 0)
(0 0.000114893537985 0)
(0 0.000113606578265 0)
(0 0.000111692014721 0)
(0 0.000109167915706 0)
(0 0.000106058422168 0)
(0 0.000102394070727 0)
(0 9.82096987363e-05 0)
(0 9.35455965972e-05 0)
(0 8.84468860041e-05 0)
(0 8.29625148401e-05 0)
(0 7.71454207365e-05 0)
(0 7.10515932328e-05 0)
(0 6.47395882472e-05 0)
(0 5.82705215789e-05 0)
(0 5.17062782594e-05 0)
(0 4.51103956942e-05 0)
(0 3.85461522662e-05 0)
(0 3.20770856702e-05 0)
(0 2.57650807208e-05 0)
(0 1.96712531086e-05 0)
(0 1.38541590773e-05 0)
(0 8.36978794954e-06 0)
(0 3.27122999899e-06 0)
(0 -1.39302481892e-06 0)
(0 -5.57739684571e-06 0)
(0 -9.24174821442e-06 0)
(0 -1.23510890735e-05 0)
(0 -1.48753408761e-05 0)
(0 -1.6789904311e-05 0)
(0 -1.80768641765e-05 0)
(0 -1.87233060247e-05 0)
(0 -1.87233060247e-05 0)
(0 -1.80768641403e-05 0)
(0 -1.67899043472e-05 0)
(0 -1.48753408761e-05 0)
(0 -1.23510890373e-05 0)
(0 -9.24174825059e-06 0)
(0 -5.57739680953e-06 0)
(0 -1.39302478275e-06 0)
(0 3.27122999899e-06 0)
(0 8.36978794954e-06 0)
(0 1.38541590773e-05 0)
(0 1.96712531447e-05 0)
(0 2.57650806484e-05 0)
(0 3.20770856702e-05 0)
(0 3.85461523024e-05 0)
(0 4.51103955856e-05 0)
(0 5.17062782594e-05 0)
(0 5.8270521615e-05 0)
(0 6.4739588211e-05 0)
(0 7.10515931966e-05 0)
(0 7.71454207365e-05 0)
(0 8.29625148039e-05 0)
(0 8.84468859679e-05 0)
(0 9.35455965972e-05 0)
(0 9.82096987002e-05 0)
(0 0.000102394070691 0)
(0 0.000106058422168 0)
(0 0.00010916791567 0)
(0 0.000111692014685 0)
(0 0.000113606578265 0)
(0 0.000114893538022 0)
(0 0.000115539979906 0)
(0 0.00011553997987 0)
(0 0.000114893538022 0)
(0 0.000113606578265 0)
(0 0.000111692014721 0)
(0 0.000109167915706 0)
(0 0.000106058422132 0)
(0 0.000102394070691 0)
(0 9.82096987002e-05 0)
(0 9.35455965972e-05 0)
(0 8.84468859679e-05 0)
(0 8.29625148039e-05 0)
(0 7.71454207365e-05 0)
(0 7.10515931966e-05 0)
(0 6.47395882472e-05 0)
(0 5.8270521615e-05 0)
(0 5.17062782956e-05 0)
(0 0.000234961826629 0)
(0 0.000238367856831 0)
(0 0.00024172480756 0)
(0 0.000244999941835 0)
(0 0.000248162075911 0)
(0 0.000251180583074 0)
(0 0.000254026342431 0)
(0 0.000256672070155 0)
(0 0.000259092185389 0)
(0 0.000261263389574 0)
(0 0.000263165126004 0)
(0 0.000264778446951 0)
(0 0.000266088166113 0)
(0 0.000267081817526 0)
(0 0.000267749394684 0)
(0 0.000268084943111 0)
(0 0.000268084943111 0)
(0 0.000267749394723 0)
(0 0.000267081817526 0)
(0 0.000266088166074 0)
(0 0.000264778446951 0)
(0 0.000263165126004 0)
(0 0.000261263389535 0)
(0 0.00025909218535 0)
(0 0.000256672070116 0)
(0 0.000254026342431 0)
(0 0.000251180583113 0)
(0 0.000248162075911 0)
(0 0.000244999941874 0)
(0 0.00024172480756 0)
(0 0.000238367856831 0)
(0 0.000234961826629 0)
(0 0.000231539115692 0)
(0 0.000228133085529 0)
(0 0.000224776134761 0)
(0 0.000221500835996 0)
(0 0.000218338866448 0)
(0 0.000215320359168 0)
(0 0.000212474599928 0)
(0 0.000209828695945 0)
(0 0.000207408756931 0)
(0 0.000205237388296 0)
(0 0.000203335816316 0)
(0 0.000201722483639 0)
(0 0.000200412776246 0)
(0 0.000199419124795 0)
(0 0.000198751547676 0)
(0 0.000198415999287 0)
(0 0.000198415999287 0)
(0 0.000198751547676 0)
(0 0.000199419124795 0)
(0 0.000200412776285 0)
(0 0.000201722483639 0)
(0 0.000203335816316 0)
(0 0.000205237388296 0)
(0 0.000207408756931 0)
(0 0.000209828695945 0)
(0 0.000212474599928 0)
(0 0.000215320359168 0)
(0 0.000218338866448 0)
(0 0.000221500835957 0)
(0 0.000224776134761 0)
(0 0.000228133085529 0)
(0 0.000231539115692 0)
(0 0.000234961826629 0)
(0 0.000238367856831 0)
(0 0.00024172480756 0)
(0 0.000244999941835 0)
(0 0.000248162075911 0)
(0 0.000251180583113 0)
(0 0.000254026342431 0)
(0 0.000256672070155 0)
(0 0.000259092185389 0)
(0 0.000261263389574 0)
(0 0.000263165126004 0)
(0 0.000264778446951 0)
(0 0.000266088166074 0)
(0 0.000267081817565 0)
(0 0.000267749394723 0)
(0 0.000268084943111 0)
(0 0.000268084943072 0)
(0 0.000267749394723 0)
(0 0.000267081817526 0)
(0 0.000266088166074 0)
(0 0.000264778446951 0)
(0 0.000263165126004 0)
(0 0.000261263389535 0)
(0 0.000259092185389 0)
(0 0.000256672070155 0)
(0 0.000254026342431 0)
(0 0.000251180583113 0)
(0 0.00024816207595 0)
(0 0.000244999941874 0)
(0 0.000241724807521 0)
(0 0.000238367856831 0)
(0 0.000234961826668 0)
(0 0.000231539115692 0)
(0 0.000228133085529 0)
(0 0.000224776134761 0)
(0 0.000221500835996 0)
(0 0.000218338866448 0)
(0 0.000215320359168 0)
(0 0.000212474599928 0)
(0 0.000209828695945 0)
(0 0.000207408756931 0)
(0 0.000205237388257 0)
(0 0.000203335816316 0)
(0 0.000201722483639 0)
(0 0.000200412776246 0)
(0 0.000199419124795 0)
(0 0.000198751547676 0)
(0 0.000198415999287 0)
(0 0.000198415999248 0)
(0 0.000198751547676 0)
(0 0.000199419124795 0)
(0 0.000200412776285 0)
(0 0.000201722483639 0)
(0 0.000203335816316 0)
(0 0.000205237388257 0)
(0 0.000207408756931 0)
(0 0.000209828695945 0)
(0 0.000212474599928 0)
(0 0.000215320359168 0)
(0 0.000218338866448 0)
(0 0.000221500835957 0)
(0 0.000224776134761 0)
(0 0.000228133085529 0)
(0 0.000231539115653 0)
(0 0.000784794334529 0)
(0 0.00077871343888 0)
(0 0.000772720400341 0)
(0 0.000766873304243 0)
(0 0.000761227975573 0)
(0 0.000755839193703 0)
(0 0.000750758643924 0)
(0 0.000746035130552 0)
(0 0.000741714646674 0)
(0 0.000737838250646 0)
(0 0.000734443398912 0)
(0 0.000731562967974 0)
(0 0.000729224677308 0)
(0 0.000727450927673 0)
(0 0.000726258850615 0)
(0 0.000725659944397 0)
(0 0.000725659944397 0)
(0 0.000726258850573 0)
(0 0.000727450927673 0)
(0 0.000729224677308 0)
(0 0.000731562967974 0)
(0 0.000734443398912 0)
(0 0.000737838250688 0)
(0 0.000741714646716 0)
(0 0.000746035130552 0)
(0 0.000750758643882 0)
(0 0.000755839193703 0)
(0 0.000761227975573 0)
(0 0.000766873304201 0)
(0 0.000772720400341 0)
(0 0.00077871343888 0)
(0 0.000784794334529 0)
(0 0.00079090466863 0)
(0 0.000796985564238 0)
(0 0.000802978602861 0)
(0 0.000808825711676 0)
(0 0.000814471027712 0)
(0 0.000819859809498 0)
(0 0.00082494053645 0)
(0 0.000829663720787 0)
(0 0.000833984533701 0)
(0 0.000837860942363 0)
(0 0.00084125560429 0)
(0 0.000844135870689 0)
(0 0.000846474325893 0)
(0 0.000848248075486 0)
(0 0.000849440152545 0)
(0 0.000850039058763 0)
(0 0.000850039058763 0)
(0 0.000849440152545 0)
(0 0.000848248075486 0)
(0 0.000846474325851 0)
(0 0.000844135870689 0)
(0 0.00084125560429 0)
(0 0.000837860942363 0)
(0 0.000833984533701 0)
(0 0.000829663720787 0)
(0 0.00082494053645 0)
(0 0.000819859809498 0)
(0 0.00081447102767 0)
(0 0.000808825711676 0)
(0 0.000802978602861 0)
(0 0.000796985564238 0)
(0 0.00079090466863 0)
(0 0.000784794334529 0)
(0 0.00077871343888 0)
(0 0.000772720400341 0)
(0 0.000766873304201 0)
(0 0.000761227975573 0)
(0 0.000755839193703 0)
(0 0.000750758643882 0)
(0 0.000746035130552 0)
(0 0.000741714646674 0)
(0 0.000737838250646 0)
(0 0.000734443398912 0)
(0 0.000731562967974 0)
(0 0.000729224677308 0)
(0 0.000727450927673 0)
(0 0.000726258850573 0)
(0 0.000725659944397 0)
(0 0.000725659944439 0)
(0 0.000726258850573 0)
(0 0.000727450927673 0)
(0 0.000729224677308 0)
(0 0.000731562967974 0)
(0 0.000734443398912 0)
(0 0.000737838250688 0)
(0 0.000741714646674 0)
(0 0.000746035130551 0)
(0 0.000750758643882 0)
(0 0.000755839193703 0)
(0 0.000761227975531 0)
(0 0.000766873304201 0)
(0 0.000772720400341 0)
(0 0.00077871343888 0)
(0 0.000784794334529 0)
(0 0.00079090466863 0)
(0 0.00079698556428 0)
(0 0.000802978602861 0)
(0 0.000808825711676 0)
(0 0.000814471027712 0)
(0 0.000819859809498 0)
(0 0.000824940536492 0)
(0 0.000829663720787 0)
(0 0.000833984533701 0)
(0 0.000837860942405 0)
(0 0.00084125560429 0)
(0 0.000844135870689 0)
(0 0.000846474325893 0)
(0 0.000848248075528 0)
(0 0.000849440152545 0)
(0 0.000850039058805 0)
(0 0.000850039058805 0)
(0 0.000849440152545 0)
(0 0.000848248075528 0)
(0 0.000846474325851 0)
(0 0.000844135870689 0)
(0 0.00084125560429 0)
(0 0.000837860942405 0)
(0 0.000833984533701 0)
(0 0.000829663720787 0)
(0 0.000824940536492 0)
(0 0.000819859809498 0)
(0 0.00081447102767 0)
(0 0.000808825711718 0)
(0 0.000802978602861 0)
(0 0.000796985564238 0)
(0 0.00079090466863 0)
(0 0.00229906490575 0)
(0 0.00226380737018 0)
(0 0.00222905985264 0)
(0 0.0021951572844 0)
(0 0.00216242581138 0)
(0 0.00213118100067 0)
(0 0.0021017235292 0)
(0 0.00207433724409 0)
(0 0.00204928564775 0)
(0 0.00202681047672 0)
(0 0.00200712743246 0)
(0 0.00199042677885 0)
(0 0.00197686915378 0)
(0 0.00196658477655 0)
(0 0.00195967312179 0)
(0 0.00195620059528 0)
(0 0.00195620059528 0)
(0 0.00195967312179 0)
(0 0.00196658477655 0)
(0 0.00197686915378 0)
(0 0.00199042677885 0)
(0 0.00200712743246 0)
(0 0.00202681047672 0)
(0 0.00204928564775 0)
(0 0.00207433724414 0)
(0 0.0021017235292 0)
(0 0.00213118100067 0)
(0 0.00216242581143 0)
(0 0.0021951572844 0)
(0 0.00222905985264 0)
(0 0.00226380737018 0)
(0 0.00229906490575 0)
(0 0.00233449301893 0)
(0 0.00236975055459 0)
(0 0.00240449807204 0)
(0 0.00243840062654 0)
(0 0.00247113211316 0)
(0 0.00250237692406 0)
(0 0.00253183438179 0)
(0 0.00255922066694 0)
(0 0.00258427207244 0)
(0 0.00260674761153 0)
(0 0.0026264303013 0)
(0 0.00264313114579 0)
(0 0.0026566887709 0)
(0 0.00266697314818 0)
(0 0.00267388480285 0)
(0 0.00267735732941 0)
(0 0.00267735732941 0)
(0 0.0026738848029 0)
(0 0.00266697314818 0)
(0 0.0026566887709 0)
(0 0.00264313114579 0)
(0 0.0026264303013 0)
(0 0.00260674761149 0)
(0 0.00258427207244 0)
(0 0.00255922066694 0)
(0 0.00253183438179 0)
(0 0.00250237692406 0)
(0 0.00247113211321 0)
(0 0.00243840062659 0)
(0 0.00240449807204 0)
(0 0.00236975055459 0)
(0 0.00233449301898 0)
(0 0.00229906490575 0)
(0 0.00226380737014 0)
(0 0.00222905985264 0)
(0 0.0021951572844 0)
(0 0.00216242581138 0)
(0 0.00213118100067 0)
(0 0.00210172352924 0)
(0 0.00207433724409 0)
(0 0.00204928564775 0)
(0 0.00202681047672 0)
(0 0.00200712743246 0)
(0 0.00199042677885 0)
(0 0.00197686915378 0)
(0 0.0019665847765 0)
(0 0.00195967312179 0)
(0 0.00195620059528 0)
(0 0.00195620059523 0)
(0 0.00195967312179 0)
(0 0.00196658477655 0)
(0 0.00197686915382 0)
(0 0.0019904267789 0)
(0 0.00200712743246 0)
(0 0.00202681047672 0)
(0 0.00204928564775 0)
(0 0.00207433724409 0)
(0 0.0021017235292 0)
(0 0.00213118100067 0)
(0 0.00216242581143 0)
(0 0.0021951572844 0)
(0 0.00222905985264 0)
(0 0.00226380737018 0)
(0 0.00229906490575 0)
(0 0.00233449301893 0)
(0 0.00236975055455 0)
(0 0.00240449807204 0)
(0 0.00243840062659 0)
(0 0.00247113211316 0)
(0 0.00250237692406 0)
(0 0.00253183438174 0)
(0 0.00255922066694 0)
(0 0.00258427207244 0)
(0 0.00260674761149 0)
(0 0.00262643030135 0)
(0 0.00264313114579 0)
(0 0.0026566887709 0)
(0 0.00266697314814 0)
(0 0.00267388480285 0)
(0 0.00267735732936 0)
(0 0.00267735732941 0)
(0 0.00267388480285 0)
(0 0.00266697314814 0)
(0 0.0026566887709 0)
(0 0.00264313114579 0)
(0 0.00262643030135 0)
(0 0.00260674761149 0)
(0 0.00258427207244 0)
(0 0.00255922066694 0)
(0 0.00253183438174 0)
(0 0.00250237692406 0)
(0 0.00247113211321 0)
(0 0.00243840062654 0)
(0 0.00240449807204 0)
(0 0.00236975055459 0)
(0 0.00233449301898 0)
(0 0.0059651354585 0)
(0 0.00583643627889 0)
(0 0.00570959913862 0)
(0 0.00558584559339 0)
(0 0.00546636749526 0)
(0 0.00535231565146 0)
(0 0.00524478821954 0)
(0 0.00514482114086 0)
(0 0.00505337644754 0)
(0 0.00497133555746 0)
(0 0.00489948801531 0)
(0 0.00483852617381 0)
(0 0.00478903683658 0)
(0 0.00475149651386 0)
(0 0.00472626711028 0)
(0 0.00471359125975 0)
(0 0.00471359125975 0)
(0 0.00472626711033 0)
(0 0.00475149651386 0)
(0 0.00478903683658 0)
(0 0.00483852617381 0)
(0 0.00489948801536 0)
(0 0.00497133555741 0)
(0 0.00505337644754 0)
(0 0.00514482114081 0)
(0 0.00524478821954 0)
(0 0.00535231565146 0)
(0 0.00546636749522 0)
(0 0.00558584559344 0)
(0 0.00570959913862 0)
(0 0.00583643627889 0)
(0 0.00596513545855 0)
(0 0.00609445767849 0)
(0 0.00622315706366 0)
(0 0.00634999399838 0)
(0 0.00647374755841 0)
(0 0.00659322564178 0)
(0 0.00670727748554 0)
(0 0.00681480472662 0)
(0 0.00691477201094 0)
(0 0.00700621651332 0)
(0 0.00708825759429 0)
(0 0.00716010513654 0)
(0 0.00722106716883 0)
(0 0.00727055650607 0)
(0 0.00730809662313 0)
(0 0.00733332602676 0)
(0 0.0073460018773 0)
(0 0.0073460018773 0)
(0 0.00733332602676 0)
(0 0.00730809662313 0)
(0 0.00727055650607 0)
(0 0.00722106716883 0)
(0 0.00716010513654 0)
(0 0.00708825759429 0)
(0 0.00700621651332 0)
(0 0.00691477201094 0)
(0 0.00681480472662 0)
(0 0.00670727748554 0)
(0 0.00659322564178 0)
(0 0.00647374755836 0)
(0 0.00634999399838 0)
(0 0.00622315706366 0)
(0 0.00609445767844 0)
(0 0.0059651354585 0)
(0 0.00583643627893 0)
(0 0.00570959913862 0)
(0 0.00558584559344 0)
(0 0.00546636749526 0)
(0 0.00535231565146 0)
(0 0.00524478821954 0)
(0 0.00514482114081 0)
(0 0.00505337644754 0)
(0 0.00497133555746 0)
(0 0.00489948801536 0)
(0 0.00483852617381 0)
(0 0.00478903683662 0)
(0 0.00475149651391 0)
(0 0.00472626711033 0)
(0 0.0047135912598 0)
(0 0.0047135912598 0)
(0 0.00472626711033 0)
(0 0.00475149651386 0)
(0 0.00478903683658 0)
(0 0.00483852617376 0)
(0 0.00489948801531 0)
(0 0.00497133555746 0)
(0 0.00505337644754 0)
(0 0.00514482114086 0)
(0 0.00524478821954 0)
(0 0.00535231565146 0)
(0 0.00546636749522 0)
(0 0.00558584559344 0)
(0 0.00570959913862 0)
(0 0.00583643627889 0)
(0 0.0059651354585 0)
(0 0.00609445767849 0)
(0 0.00622315706366 0)
(0 0.00634999399838 0)
(0 0.00647374755836 0)
(0 0.00659322564178 0)
(0 0.00670727748554 0)
(0 0.00681480472662 0)
(0 0.00691477201094 0)
(0 0.00700621651332 0)
(0 0.00708825759429 0)
(0 0.00716010513649 0)
(0 0.00722106716888 0)
(0 0.00727055650607 0)
(0 0.00730809662313 0)
(0 0.00733332602676 0)
(0 0.0073460018773 0)
(0 0.0073460018773 0)
(0 0.00733332602676 0)
(0 0.00730809662313 0)
(0 0.00727055650607 0)
(0 0.00722106716883 0)
(0 0.00716010513649 0)
(0 0.00708825759429 0)
(0 0.00700621651332 0)
(0 0.00691477201094 0)
(0 0.00681480472666 0)
(0 0.00670727748554 0)
(0 0.00659322564178 0)
(0 0.00647374755841 0)
(0 0.00634999399838 0)
(0 0.00622315706366 0)
(0 0.00609445767849 0)
(0 0.013917076081 0)
(0 0.0135684747322 0)
(0 0.0132249175266 0)
(0 0.0128897126902 0)
(0 0.0125660887087 0)
(0 0.0122571622352 0)
(0 0.0119659082939 0)
(0 0.0116951320223 0)
(0 0.0114474410065 0)
(0 0.0112252204928 0)
(0 0.011030610954 0)
(0 0.0108654862816 0)
(0 0.0107314368458 0)
(0 0.0106297535646 0)
(0 0.0105614158406 0)
(0 0.0105270814973 0)
(0 0.0105270814973 0)
(0 0.0105614158406 0)
(0 0.0106297535646 0)
(0 0.0107314368459 0)
(0 0.0108654862816 0)
(0 0.0110306109539 0)
(0 0.0112252204928 0)
(0 0.0114474410065 0)
(0 0.0116951320223 0)
(0 0.0119659082939 0)
(0 0.0122571622352 0)
(0 0.0125660887087 0)
(0 0.0128897126901 0)
(0 0.0132249175266 0)
(0 0.0135684747322 0)
(0 0.013917076081 0)
(0 0.0142673642397 0)
(0 0.0146159655726 0)
(0 0.014959522794 0)
(0 0.0152947278361 0)
(0 0.015618351612 0)
(0 0.0159272780855 0)
(0 0.0162185318054 0)
(0 0.0164893085039 0)
(0 0.0167369995198 0)
(0 0.016959219812 0)
(0 0.0171538295722 0)
(0 0.0173189540232 0)
(0 0.0174530034589 0)
(0 0.017554686756 0)
(0 0.0176230244801 0)
(0 0.0176573588233 0)
(0 0.0176573588233 0)
(0 0.01762302448 0)
(0 0.017554686756 0)
(0 0.017453003459 0)
(0 0.0173189540232 0)
(0 0.0171538295722 0)
(0 0.0169592198121 0)
(0 0.0167369995198 0)
(0 0.0164893085039 0)
(0 0.0162185318054 0)
(0 0.0159272780855 0)
(0 0.0156183516119 0)
(0 0.0152947278361 0)
(0 0.014959522794 0)
(0 0.0146159655726 0)
(0 0.0142673642397 0)
(0 0.013917076081 0)
(0 0.0135684747322 0)
(0 0.0132249175266 0)
(0 0.0128897126902 0)
(0 0.0125660887087 0)
(0 0.0122571622352 0)
(0 0.0119659082939 0)
(0 0.0116951320223 0)
(0 0.0114474410065 0)
(0 0.0112252204927 0)
(0 0.0110306109539 0)
(0 0.0108654862816 0)
(0 0.0107314368458 0)
(0 0.0106297535646 0)
(0 0.0105614158406 0)
(0 0.0105270814973 0)
(0 0.0105270814973 0)
(0 0.0105614158406 0)
(0 0.0106297535646 0)
(0 0.0107314368458 0)
(0 0.0108654862816 0)
(0 0.011030610954 0)
(0 0.0112252204927 0)
(0 0.0114474410065 0)
(0 0.0116951320223 0)
(0 0.0119659082939 0)
(0 0.0122571622352 0)
(0 0.0125660887087 0)
(0 0.0128897126901 0)
(0 0.0132249175267 0)
(0 0.0135684747322 0)
(0 0.013917076081 0)
(0 0.0142673642397 0)
(0 0.0146159655726 0)
(0 0.014959522794 0)
(0 0.0152947278361 0)
(0 0.015618351612 0)
(0 0.0159272780855 0)
(0 0.0162185318054 0)
(0 0.0164893085039 0)
(0 0.0167369995198 0)
(0 0.0169592198121 0)
(0 0.0171538295722 0)
(0 0.0173189540231 0)
(0 0.0174530034589 0)
(0 0.017554686756 0)
(0 0.0176230244801 0)
(0 0.0176573588233 0)
(0 0.0176573588233 0)
(0 0.0176230244801 0)
(0 0.017554686756 0)
(0 0.017453003459 0)
(0 0.0173189540232 0)
(0 0.0171538295722 0)
(0 0.0169592198121 0)
(0 0.0167369995198 0)
(0 0.0164893085039 0)
(0 0.0162185318053 0)
(0 0.0159272780855 0)
(0 0.0156183516119 0)
(0 0.015294727836 0)
(0 0.014959522794 0)
(0 0.0146159655726 0)
(0 0.0142673642397 0)
(0 0.0295493576797 0)
(0 0.0287465357242 0)
(0 0.0279553301951 0)
(0 0.0271833602331 0)
(0 0.026438060808 0)
(0 0.0257266092294 0)
(0 0.0250558574853 0)
(0 0.0244322650754 0)
(0 0.0238618375188 0)
(0 0.0233500683792 0)
(0 0.0229018864032 0)
(0 0.0225216075136 0)
(0 0.0222128942589 0)
(0 0.0219787199387 0)
(0 0.0218213394124 0)
(0 0.0217422683497 0)
(0 0.0217422683497 0)
(0 0.0218213394124 0)
(0 0.0219787199387 0)
(0 0.0222128942588 0)
(0 0.0225216075136 0)
(0 0.0229018864032 0)
(0 0.0233500683793 0)
(0 0.0238618375188 0)
(0 0.0244322650755 0)
(0 0.0250558574852 0)
(0 0.0257266092294 0)
(0 0.026438060808 0)
(0 0.0271833602331 0)
(0 0.0279553301952 0)
(0 0.0287465357242 0)
(0 0.0295493576797 0)
(0 0.030356063878 0)
(0 0.0311588858507 0)
(0 0.0319500916013 0)
(0 0.0327220615632 0)
(0 0.0334673609883 0)
(0 0.0341788123283 0)
(0 0.0348495640896 0)
(0 0.0354731567209 0)
(0 0.0360435842775 0)
(0 0.0365553531957 0)
(0 0.0370035353931 0)
(0 0.0373838140613 0)
(0 0.0376925270775 0)
(0 0.0379267018576 0)
(0 0.0380840823839 0)
(0 0.0381631534467 0)
(0 0.0381631534467 0)
(0 0.038084082384 0)
(0 0.0379267018576 0)
(0 0.0376925270775 0)
(0 0.0373838140613 0)
(0 0.0370035353931 0)
(0 0.0365553531957 0)
(0 0.0360435842775 0)
(0 0.0354731567209 0)
(0 0.0348495640896 0)
(0 0.0341788123283 0)
(0 0.0334673609884 0)
(0 0.0327220615632 0)
(0 0.0319500916013 0)
(0 0.0311588858507 0)
(0 0.030356063878 0)
(0 0.0295493576797 0)
(0 0.0287465357241 0)
(0 0.0279553301952 0)
(0 0.0271833602331 0)
(0 0.026438060808 0)
(0 0.0257266092294 0)
(0 0.0250558574853 0)
(0 0.0244322650754 0)
(0 0.0238618375188 0)
(0 0.0233500683793 0)
(0 0.0229018864032 0)
(0 0.0225216075136 0)
(0 0.0222128942588 0)
(0 0.0219787199388 0)
(0 0.0218213394124 0)
(0 0.0217422683497 0)
(0 0.0217422683497 0)
(0 0.0218213394124 0)
(0 0.0219787199387 0)
(0 0.0222128942589 0)
(0 0.0225216075136 0)
(0 0.0229018864032 0)
(0 0.0233500683793 0)
(0 0.0238618375188 0)
(0 0.0244322650754 0)
(0 0.0250558574853 0)
(0 0.0257266092294 0)
(0 0.026438060808 0)
(0 0.0271833602332 0)
(0 0.0279553301951 0)
(0 0.0287465357242 0)
(0 0.0295493576797 0)
(0 0.030356063878 0)
(0 0.0311588858507 0)
(0 0.0319500916013 0)
(0 0.0327220615632 0)
(0 0.0334673609883 0)
(0 0.0341788123283 0)
(0 0.0348495640896 0)
(0 0.0354731567209 0)
(0 0.0360435842775 0)
(0 0.0365553531957 0)
(0 0.0370035353931 0)
(0 0.0373838140613 0)
(0 0.0376925270775 0)
(0 0.0379267018576 0)
(0 0.0380840823839 0)
(0 0.0381631534467 0)
(0 0.0381631534466 0)
(0 0.0380840823839 0)
(0 0.0379267018576 0)
(0 0.0376925270775 0)
(0 0.0373838140613 0)
(0 0.0370035353931 0)
(0 0.0365553531957 0)
(0 0.0360435842775 0)
(0 0.0354731567209 0)
(0 0.0348495640896 0)
(0 0.0341788123283 0)
(0 0.0334673609884 0)
(0 0.0327220615632 0)
(0 0.0319500916013 0)
(0 0.0311588858507 0)
(0 0.0303560638781 0)
(0 0.0577226790085 0)
(0 0.0560754725299 0)
(0 0.0544520993734 0)
(0 0.052868194268 0)
(0 0.0513390104499 0)
(0 0.0498792750038 0)
(0 0.048503045949 0)
(0 0.0472235770019 0)
(0 0.0460531905541 0)
(0 0.0450031575049 0)
(0 0.0440835905848 0)
(0 0.0433033456392 0)
(0 0.0426699370091 0)
(0 0.0421894646812 0)
(0 0.0418665554311 0)
(0 0.0417043200387 0)
(0 0.0417043200387 0)
(0 0.0418665554311 0)
(0 0.0421894646812 0)
(0 0.0426699370091 0)
(0 0.0433033456392 0)
(0 0.0440835905848 0)
(0 0.0450031575049 0)
(0 0.0460531905541 0)
(0 0.0472235770019 0)
(0 0.048503045949 0)
(0 0.0498792750037 0)
(0 0.05133901045 0)
(0 0.052868194268 0)
(0 0.0544520993733 0)
(0 0.0560754725299 0)
(0 0.0577226790085 0)
(0 0.0593778557328 0)
(0 0.0610250621929 0)
(0 0.0626484350926 0)
(0 0.064232340198 0)
(0 0.065761524016 0)
(0 0.0672212597375 0)
(0 0.068597488774 0)
(0 0.0698769574641 0)
(0 0.0710473441687 0)
(0 0.072097377218 0)
(0 0.0730169438812 0)
(0 0.0737971888267 0)
(0 0.0744305977321 0)
(0 0.0749110700417 0)
(0 0.0752339790349 0)
(0 0.0753962146841 0)
(0 0.0753962146841 0)
(0 0.0752339790348 0)
(0 0.0749110700417 0)
(0 0.0744305977321 0)
(0 0.0737971888267 0)
(0 0.0730169438812 0)
(0 0.072097377218 0)
(0 0.0710473441687 0)
(0 0.0698769574642 0)
(0 0.068597488774 0)
(0 0.0672212597375 0)
(0 0.065761524016 0)
(0 0.064232340198 0)
(0 0.0626484350926 0)
(0 0.0610250621929 0)
(0 0.0593778557329 0)
(0 0.0577226790085 0)
(0 0.05607547253 0)
(0 0.0544520993733 0)
(0 0.052868194268 0)
(0 0.0513390104499 0)
(0 0.0498792750038 0)
(0 0.048503045949 0)
(0 0.0472235770019 0)
(0 0.0460531905541 0)
(0 0.0450031575049 0)
(0 0.0440835905848 0)
(0 0.0433033456392 0)
(0 0.0426699370091 0)
(0 0.0421894646812 0)
(0 0.0418665554311 0)
(0 0.0417043200387 0)
(0 0.0417043200387 0)
(0 0.0418665554311 0)
(0 0.0421894646812 0)
(0 0.0426699370091 0)
(0 0.0433033456392 0)
(0 0.0440835905848 0)
(0 0.0450031575049 0)
(0 0.0460531905541 0)
(0 0.0472235770019 0)
(0 0.0485030459489 0)
(0 0.0498792750038 0)
(0 0.05133901045 0)
(0 0.052868194268 0)
(0 0.0544520993733 0)
(0 0.0560754725299 0)
(0 0.0577226790085 0)
(0 0.0593778557329 0)
(0 0.0610250621929 0)
(0 0.0626484350926 0)
(0 0.064232340198 0)
(0 0.065761524016 0)
(0 0.0672212597375 0)
(0 0.068597488774 0)
(0 0.0698769574642 0)
(0 0.0710473441687 0)
(0 0.072097377218 0)
(0 0.0730169438812 0)
(0 0.0737971888267 0)
(0 0.0744305977321 0)
(0 0.0749110700417 0)
(0 0.0752339790349 0)
(0 0.0753962146841 0)
(0 0.0753962146842 0)
(0 0.0752339790349 0)
(0 0.0749110700417 0)
(0 0.0744305977321 0)
(0 0.0737971888267 0)
(0 0.0730169438812 0)
(0 0.072097377218 0)
(0 0.0710473441687 0)
(0 0.0698769574641 0)
(0 0.068597488774 0)
(0 0.0672212597375 0)
(0 0.065761524016 0)
(0 0.064232340198 0)
(0 0.0626484350926 0)
(0 0.0610250621929 0)
(0 0.0593778557328 0)
(0 0.104749924148 0)
(0 0.101666246217 0)
(0 0.0986271864236 0)
(0 0.0956620126183 0)
(0 0.0927992810394 0)
(0 0.090066561313 0)
(0 0.087490170882 0)
(0 0.0850949217344 0)
(0 0.082903882106 0)
(0 0.0809381518301 0)
(0 0.0792166630175 0)
(0 0.0777559938045 0)
(0 0.076570211665 0)
(0 0.0756707357876 0)
(0 0.0750662291447 0)
(0 0.0747625134026 0)
(0 0.0747625134026 0)
(0 0.0750662291447 0)
(0 0.0756707357876 0)
(0 0.076570211665 0)
(0 0.0777559938045 0)
(0 0.0792166630176 0)
(0 0.0809381518301 0)
(0 0.082903882106 0)
(0 0.0850949217344 0)
(0 0.087490170882 0)
(0 0.0900665613131 0)
(0 0.0927992810393 0)
(0 0.0956620126184 0)
(0 0.0986271864236 0)
(0 0.101666246217 0)
(0 0.104749924148 0)
(0 0.107848522536 0)
(0 0.110932199934 0)
(0 0.113971259746 0)
(0 0.116936433552 0)
(0 0.119799165131 0)
(0 0.122531885094 0)
(0 0.125108275545 0)
(0 0.127503524436 0)
(0 0.129694564044 0)
(0 0.13166029432 0)
(0 0.133381783153 0)
(0 0.134842452366 0)
(0 0.136028234742 0)
(0 0.136927710363 0)
(0 0.137532217025 0)
(0 0.137835932748 0)
(0 0.137835932748 0)
(0 0.137532217026 0)
(0 0.136927710363 0)
(0 0.136028234742 0)
(0 0.134842452366 0)
(0 0.133381783153 0)
(0 0.13166029432 0)
(0 0.129694564044 0)
(0 0.127503524436 0)
(0 0.125108275545 0)
(0 0.122531885094 0)
(0 0.119799165131 0)
(0 0.116936433552 0)
(0 0.113971259746 0)
(0 0.110932199934 0)
(0 0.107848522536 0)
(0 0.104749924148 0)
(0 0.101666246217 0)
(0 0.0986271864236 0)
(0 0.0956620126183 0)
(0 0.0927992810394 0)
(0 0.090066561313 0)
(0 0.087490170882 0)
(0 0.0850949217344 0)
(0 0.082903882106 0)
(0 0.0809381518301 0)
(0 0.0792166630176 0)
(0 0.0777559938045 0)
(0 0.076570211665 0)
(0 0.0756707357876 0)
(0 0.0750662291447 0)
(0 0.0747625134026 0)
(0 0.0747625134026 0)
(0 0.0750662291446 0)
(0 0.0756707357876 0)
(0 0.076570211665 0)
(0 0.0777559938045 0)
(0 0.0792166630175 0)
(0 0.0809381518301 0)
(0 0.082903882106 0)
(0 0.0850949217344 0)
(0 0.087490170882 0)
(0 0.090066561313 0)
(0 0.0927992810393 0)
(0 0.0956620126184 0)
(0 0.0986271864237 0)
(0 0.101666246217 0)
(0 0.104749924148 0)
(0 0.107848522536 0)
(0 0.110932199934 0)
(0 0.113971259746 0)
(0 0.116936433552 0)
(0 0.119799165131 0)
(0 0.122531885094 0)
(0 0.125108275545 0)
(0 0.127503524436 0)
(0 0.129694564044 0)
(0 0.13166029432 0)
(0 0.133381783153 0)
(0 0.134842452366 0)
(0 0.136028234742 0)
(0 0.136927710363 0)
(0 0.137532217025 0)
(0 0.137835932748 0)
(0 0.137835932748 0)
(0 0.137532217025 0)
(0 0.136927710363 0)
(0 0.136028234742 0)
(0 0.134842452366 0)
(0 0.133381783153 0)
(0 0.13166029432 0)
(0 0.129694564044 0)
(0 0.127503524436 0)
(0 0.125108275545 0)
(0 0.122531885094 0)
(0 0.119799165131 0)
(0 0.116936433552 0)
(0 0.113971259746 0)
(0 0.110932199934 0)
(0 0.107848522536 0)
(0 0.17811164412 0)
(0 0.172760366825 0)
(0 0.167486517899 0)
(0 0.162340886916 0)
(0 0.157373029679 0)
(0 0.152630788817 0)
(0 0.148159835525 0)
(0 0.144003226961 0)
(0 0.140200993528 0)
(0 0.136789752954 0)
(0 0.133802357428 0)
(0 0.131267576999 0)
(0 0.129209822972 0)
(0 0.127648912927 0)
(0 0.126599879515 0)
(0 0.126072824525 0)
(0 0.126072824525 0)
(0 0.126599879515 0)
(0 0.127648912927 0)
(0 0.129209822972 0)
(0 0.131267576999 0)
(0 0.133802357427 0)
(0 0.136789752955 0)
(0 0.140200993528 0)
(0 0.144003226961 0)
(0 0.148159835525 0)
(0 0.152630788817 0)
(0 0.157373029679 0)
(0 0.162340886916 0)
(0 0.167486517899 0)
(0 0.172760366825 0)
(0 0.17811164412 0)
(0 0.183488814133 0)
(0 0.188840091449 0)
(0 0.194113940951 0)
(0 0.199259571636 0)
(0 0.204227429171 0)
(0 0.208969669458 0)
(0 0.213440623026 0)
(0 0.217597231591 0)
(0 0.221399464746 0)
(0 0.22481070532 0)
(0 0.227798101124 0)
(0 0.230332881553 0)
(0 0.232390635303 0)
(0 0.233951545348 0)
(0 0.235000579036 0)
(0 0.23552763375 0)
(0 0.23552763375 0)
(0 0.235000579036 0)
(0 0.233951545348 0)
(0 0.232390635303 0)
(0 0.230332881553 0)
(0 0.227798101124 0)
(0 0.22481070532 0)
(0 0.221399464746 0)
(0 0.217597231591 0)
(0 0.213440623026 0)
(0 0.208969669458 0)
(0 0.204227429171 0)
(0 0.199259571636 0)
(0 0.194113940951 0)
(0 0.188840091449 0)
(0 0.183488814133 0)
(0 0.17811164412 0)
(0 0.172760366825 0)
(0 0.167486517899 0)
(0 0.162340886916 0)
(0 0.157373029679 0)
(0 0.152630788817 0)
(0 0.148159835525 0)
(0 0.144003226961 0)
(0 0.140200993528 0)
(0 0.136789752955 0)
(0 0.133802357428 0)
(0 0.131267576999 0)
(0 0.129209822972 0)
(0 0.127648912927 0)
(0 0.126599879515 0)
(0 0.126072824525 0)
(0 0.126072824525 0)
(0 0.126599879515 0)
(0 0.127648912927 0)
(0 0.129209822972 0)
(0 0.131267576999 0)
(0 0.133802357428 0)
(0 0.136789752954 0)
(0 0.140200993528 0)
(0 0.144003226961 0)
(0 0.148159835525 0)
(0 0.152630788817 0)
(0 0.157373029679 0)
(0 0.162340886916 0)
(0 0.167486517899 0)
(0 0.172760366825 0)
(0 0.17811164412 0)
(0 0.183488814133 0)
(0 0.188840091449 0)
(0 0.194113940951 0)
(0 0.199259571636 0)
(0 0.204227429171 0)
(0 0.208969669458 0)
(0 0.213440623026 0)
(0 0.217597231591 0)
(0 0.221399464746 0)
(0 0.22481070532 0)
(0 0.227798101124 0)
(0 0.230332881553 0)
(0 0.232390635303 0)
(0 0.233951545348 0)
(0 0.235000579036 0)
(0 0.23552763375 0)
(0 0.23552763375 0)
(0 0.235000579036 0)
(0 0.233951545348 0)
(0 0.232390635303 0)
(0 0.230332881553 0)
(0 0.227798101124 0)
(0 0.22481070532 0)
(0 0.221399464746 0)
(0 0.217597231591 0)
(0 0.213440623026 0)
(0 0.208969669458 0)
(0 0.204227429171 0)
(0 0.199259571636 0)
(0 0.194113940951 0)
(0 0.188840091449 0)
(0 0.183488814133 0)
(0 0.285921737954 0)
(0 0.277212735858 0)
(0 0.268629745346 0)
(0 0.260255425424 0)
(0 0.252170425268 0)
(0 0.244452607569 0)
(0 0.237176299713 0)
(0 0.230411576162 0)
(0 0.224223584757 0)
(0 0.218671919485 0)
(0 0.213810045724 0)
(0 0.209684786487 0)
(0 0.206335869736 0)
(0 0.203795547646 0)
(0 0.202088284676 0)
(0 0.201230522987 0)
(0 0.201230522987 0)
(0 0.202088284676 0)
(0 0.203795547646 0)
(0 0.206335869736 0)
(0 0.209684786487 0)