/*--------------------------------*- C++ -*----------------------------------*\
  =========                 |
  \\      /  F ield         | OpenFOAM: The Open Source CFD Toolbox
   \\    /   O peration     | Website:  https://openfoam.org
    \\  /    A nd           | Version:  6
     \\/     M anipulation  |
\*---------------------------------------------------------------------------*/
FoamFile
{
    version     2.0;
    format      ascii;
    class       volVectorField;
    location    "4.76e-05";
    object      U;
}
// * * * * * * * * * * * * * * * * * * * * * * * * * * * * * * * * * * * * * //

dimensions      [0 1 -1 0 0 0 0];

internalField   nonuniform List<vector> 
8192
(
(-88.322 0 -2.80114045721e-10)
(-88.3219999996 0 -7.70801951335e-11)
(-88.3220000001 0 -6.88097380063e-11)
(-88.3220000003 0 -2.62885595763e-10)
(-88.3219999995 0 -6.28441315226e-11)
(-88.3219999997 0 1.0378112972e-11)
(-88.3220000003 0 -1.8715948236e-12)
(-88.322 0 1.00747816282e-10)
(-88.322 0 -2.57142673756e-10)
(-88.322 0 -5.71152654074e-10)
(-88.3219999999 0 -7.0479440874e-10)
(-88.322 0 3.61214903486e-10)
(-88.3220000002 0 6.56324091302e-10)
(-88.322 0 -7.39821448614e-10)
(-88.3219999998 0 -6.19052450849e-10)
(-88.3219999999 0 3.53387893702e-10)
(-88.3219999998 0 2.86761155666e-10)
(-88.3219999999 0 6.38774175561e-10)
(-88.3220000002 0 -4.20024517735e-10)
(-88.322 0 -5.587417781e-10)
(-88.3219999997 0 2.6082625008e-10)
(-88.3220000003 0 3.79817879476e-10)
(-88.3220000003 0 -5.91252769689e-10)
(-88.3219999998 0 -5.60368506777e-10)
(-88.322 0 1.66321869226e-10)
(-88.3219999999 0 1.74943483721e-10)
(-88.3219999999 0 2.18165003807e-10)
(-88.3219999999 0 1.84009446519e-10)
(-88.3220000002 0 2.99679557206e-10)
(-88.3220000002 0 -1.5300089841e-10)
(-88.3219999999 0 2.10794732569e-10)
(-88.3219999996 0 -4.80700547161e-11)
(-88.3219999989 0 1.20924692532e-10)
(-88.3220000018 0 5.34215476175e-10)
(-88.3220000026 0 -8.23601767217e-10)
(-88.3219999987 0 -6.21872852211e-10)
(-88.3219999996 0 -1.50917607241e-11)
(-88.3219999996 0 -5.55398081202e-10)
(-88.3219999986 0 1.7069532309e-10)
(-88.3220000006 0 1.69002379387e-10)
(-88.3220000001 0 -5.05193209554e-11)
(-88.3219999998 0 5.80370975874e-11)
(-88.3220000002 0 -1.32942281698e-11)
(-88.322 0 -1.49384967171e-11)
(-88.322 0 -5.65896359794e-11)
(-88.322 0 -3.57527088935e-11)
(-88.322 0 -1.88198349506e-11)
(-88.322 0 -1.86626867958e-11)
(-88.322 0 2.587611917e-11)
(-88.3219999998 0 -8.93502457037e-11)
(-88.3219999999 0 1.18885325099e-10)
(-88.3220000006 0 -5.56500221215e-11)
(-88.3219999995 0 -2.04036996638e-10)
(-88.3219999993 0 3.32267688535e-10)
(-88.3220000012 0 1.82787788166e-10)
(-88.3220000006 0 -2.10983690856e-10)
(-88.322 0 -3.35545550175e-11)
(-88.3219999998 0 -1.69570289388e-10)
(-88.3220000002 0 -4.05424030962e-11)
(-88.3219999992 0 -2.98013299974e-10)
(-88.3219999984 0 3.34336795164e-10)
(-88.3219999998 0 3.88207643888e-10)
(-88.3220000009 0 3.57769244583e-10)
(-88.3220000014 0 -1.86873351694e-11)
(-88.322 0 -3.17730618611e-10)
(-88.3219999999 0 -8.64394081061e-11)
(-88.3220000002 0 1.19931073507e-10)
(-88.3219999997 0 1.18215069472e-11)
(-88.322 0 2.38685212108e-10)
(-88.3220000002 0 -1.17171687929e-10)
(-88.3219999995 0 4.71491266198e-11)
(-88.3220000005 0 5.0501256409e-12)
(-88.3220000013 0 -6.60954759684e-12)
(-88.3220000008 0 -5.97223530692e-11)
(-88.3219999982 0 6.65963966242e-11)
(-88.3219999973 0 -2.35364208473e-10)
(-88.322000002 0 -2.39792509935e-11)
(-88.3220000024 0 -1.79646179652e-10)
(-88.321999998 0 -3.04790218204e-10)
(-88.3219999983 0 2.96327293425e-10)
(-88.3219999996 0 2.21979322783e-10)
(-88.3220000016 0 1.48758778961e-10)
(-88.3220000022 0 -3.31247215734e-10)
(-88.3219999988 0 -1.89790651354e-10)
(-88.3219999984 0 -5.43821657568e-11)
(-88.3220000014 0 -8.98011334199e-12)
(-88.3220000016 0 2.01257776856e-10)
(-88.3219999987 0 -6.85051747887e-11)
(-88.3219999986 0 4.34507715844e-10)
(-88.322 0 -1.98998003847e-10)
(-88.3220000001 0 3.13305662206e-10)
(-88.3219999999 0 2.92415556296e-10)
(-88.3220000005 0 -6.38790190154e-11)
(-88.322 0 1.82591796749e-11)
(-88.3219999998 0 7.16344189277e-11)
(-88.3220000004 0 1.95420343114e-11)
(-88.3219999998 0 -2.24622412491e-10)
(-88.3220000003 0 -4.55760781364e-10)
(-88.322 0 5.49623292883e-10)
(-88.3219999995 0 6.29247946121e-10)
(-88.3220000001 0 3.70679962887e-12)
(-88.322 0 3.04003734083e-10)
(-88.322 0 -1.70510285178e-10)
(-88.322 0 -2.11844973072e-10)
(-88.322 0 1.4304195966e-10)
(-88.322 0 -8.26223585882e-11)
(-88.322 0 6.51085683636e-11)
(-88.322 0 -1.93347362782e-10)
(-88.322 0 -3.94963623538e-10)
(-88.322 0 -3.34757349476e-10)
(-88.322 0 -3.25154129536e-10)
(-88.322 0 -3.90511323332e-10)
(-88.322 0 -3.69633221967e-10)
(-88.322 0 -8.97853694982e-11)
(-88.322 0 3.04245697495e-10)
(-88.3220000001 0 -8.83804794791e-11)
(-88.3219999998 0 5.77582827148e-11)
(-88.322 0 -1.02717228881e-10)
(-88.3220000001 0 -2.80982892799e-10)
(-88.322 0 4.13600281021e-10)
(-88.322 0 -1.72531276328e-10)
(-88.3220000001 0 -1.68966017128e-10)
(-88.322 0 -3.84998312203e-10)
(-88.3219999999 0 8.69201961477e-10)
(-88.322 0 3.29670304062e-10)
(-88.3220000001 0 -8.01334960059e-10)
(-88.3220000001 0 -1.08105278452e-09)
(-88.322 0 -4.43112154689e-10)
(-88.3219999993 0 7.1877487103e-11)
(-88.3219999988 0 9.76516770232e-11)
(-88.322 0 -2.9747651293e-11)
(-88.322 0 1.91615223243e-10)
(-88.3219999999 0 -1.51801121097e-10)
(-88.322 0 1.405096033e-10)
(-88.322 0 -4.14187133192e-11)
(-88.322 0 -9.75917543158e-11)
(-88.3220000002 0 2.28378579063e-10)
(-88.3219999999 0 5.33004191333e-10)
(-88.3220000003 0 6.63248142026e-10)
(-88.3220000002 0 -2.58977835559e-10)
(-88.322 0 -5.65281426946e-10)
(-88.3220000005 0 5.36793944076e-10)
(-88.3219999989 0 5.56306948859e-10)
(-88.3219999988 0 -3.72652426425e-10)
(-88.3220000001 0 -2.93479866825e-10)
(-88.3220000009 0 -5.76047940181e-10)
(-88.3220000009 0 4.51435281606e-10)
(-88.3219999994 0 5.18038314285e-10)
(-88.3219999993 0 -2.23234092885e-10)
(-88.3219999998 0 -2.16399099124e-10)
(-88.3220000004 0 5.62535191706e-10)
(-88.3219999994 0 5.56503049898e-10)
(-88.3220000003 0 -8.76145529483e-11)
(-88.322 0 -1.61220748518e-10)
(-88.3219999989 0 -8.99296229676e-11)
(-88.3220000007 0 9.19856025909e-11)
(-88.3220000007 0 -7.38867542106e-11)
(-88.3219999999 0 4.91692536953e-11)
(-88.322 0 8.76895763038e-11)
(-88.3220000003 0 -8.19154811871e-12)
(-88.322 0 -4.69166156992e-10)
(-88.322 0 4.43671337678e-10)
(-88.3220000002 0 6.26410157113e-10)
(-88.322 0 -4.02588371506e-10)
(-88.3220000003 0 -6.93065999763e-10)
(-88.322 0 8.26025054934e-10)
(-88.3219999997 0 4.08673383699e-10)
(-88.3219999999 0 -3.64220334411e-10)
(-88.322 0 -4.43111327423e-10)
(-88.322 0 1.88478371617e-10)
(-88.3220000004 0 -2.7964099148e-10)
(-88.322000001 0 -6.43898367799e-11)
(-88.3220000003 0 -3.44421917664e-10)
(-88.3219999998 0 6.05712232148e-11)
(-88.3220000001 0 -6.00155983798e-10)
(-88.3219999999 0 -5.94142093973e-10)
(-88.3219999994 0 4.9869361206e-10)
(-88.3219999986 0 2.22245806883e-11)
(-88.322 0 -3.96225670664e-10)
(-88.322000001 0 1.76868420154e-10)
(-88.3219999995 0 -4.44005146468e-10)
(-88.322 0 4.10053720192e-10)
(-88.322 0 7.2020668367e-11)
(-88.3220000004 0 -3.45885496051e-10)
(-88.3220000012 0 -3.72157102249e-10)
(-88.3220000003 0 -3.95017525859e-10)
(-88.3219999982 0 -1.66530396263e-10)
(-88.3219999978 0 -1.89048929639e-10)
(-88.3220000019 0 -1.57249561885e-10)
(-88.3220000027 0 8.44981892853e-11)
(-88.3220000001 0 5.63598325521e-11)
(-88.3219999999 0 7.78341910827e-11)
(-88.322 0 6.28551439155e-10)
(-88.322 0 1.87534860062e-10)
(-88.322 0 -4.80228264593e-11)
(-88.322 0 1.59880190216e-10)
(-88.322 0 -1.92089464774e-10)
(-88.322 0 3.79759532013e-11)
(-88.322 0 1.35480893305e-11)
(-88.322 0 3.74713934129e-11)
(-88.322 0 2.75830477424e-11)
(-88.322 0 9.44959355446e-11)
(-88.3219999998 0 -3.31165844734e-11)
(-88.3219999997 0 1.66283568516e-10)
(-88.3220000005 0 -1.35141400425e-11)
(-88.3220000002 0 3.88458396809e-10)
(-88.3219999998 0 3.43875126439e-10)
(-88.322 0 -2.85072713468e-10)
(-88.322 0 -2.12577652076e-10)
(-88.322 0 -2.86827149383e-10)
(-88.322 0 4.94849765038e-10)
(-88.322 0 4.44241245033e-10)
(-88.322 0 -5.05456409268e-10)
(-88.3219999999 0 -5.08616606333e-10)
(-88.322 0 3.21109397686e-10)
(-88.322 0 5.05929813919e-10)
(-88.322 0 -2.04249481309e-10)
(-88.322 0 5.73703620919e-10)
(-88.3219999996 0 -1.95971045209e-10)
(-88.3219999999 0 4.19748964478e-11)
(-88.3220000006 0 -1.03750738541e-10)
(-88.3219999997 0 -2.67650528584e-10)
(-88.3219999999 0 9.32740777099e-11)
(-88.3220000015 0 -8.84226116437e-11)
(-88.3219999989 0 6.48633470845e-12)
(-88.3219999982 0 -8.58265295396e-11)
(-88.3220000017 0 4.34692366555e-11)
(-88.3220000021 0 9.40030943464e-11)
(-88.3219999978 0 -7.40472546803e-11)
(-88.3219999978 0 3.62860283102e-10)
(-88.3220000023 0 -2.36638246974e-11)
(-88.3220000016 0 3.8868548352e-11)
(-88.3219999989 0 -7.1937713932e-11)
(-88.3219999998 0 -3.31060312486e-12)
(-88.3220000005 0 -8.44679679483e-11)
(-88.3220000002 0 1.95165184948e-10)
(-88.3219999997 0 4.25016406193e-10)
(-88.3220000005 0 3.32615249776e-10)
(-88.3220000013 0 3.48216128714e-10)
(-88.3219999978 0 2.69760466136e-10)
(-88.3219999989 0 5.16355399042e-10)
(-88.3220000017 0 1.98634253557e-10)
(-88.3219999998 0 -3.6314115339e-10)
(-88.3220000002 0 1.09609412454e-10)
(-88.3219999993 0 -1.96652462573e-10)
(-88.321999999 0 2.42356902634e-10)
(-88.3220000015 0 5.66236397485e-10)
(-88.3220000008 0 -5.38993260499e-10)
(-88.3220000001 0 -1.64990284294e-10)
(-88.3219999997 0 4.3223254408e-10)
(-88.3219999996 0 5.66929215207e-11)
(-88.3219999998 0 -4.66229404974e-10)
(-88.3219999995 0 -1.04554332128e-09)
(-88.3219999998 0 8.35215796925e-10)
(-88.3220000001 0 9.66942901528e-10)
(-88.322 0 7.46896643173e-10)
(-88.3220000005 0 -3.11297320214e-10)
(-88.3220000001 0 -1.21146633281e-10)
(-88.322 0 2.29933949099e-10)
(-88.3220000004 0 -3.84541697769e-11)
(-88.322 0 -5.67386356012e-11)
(-88.3219999996 0 -1.06870055938e-11)
(-88.322 0 6.14761594893e-13)
(-88.322 0 3.26090466723e-11)
(-88.322 0 1.87199676921e-11)
(-88.322 0 -6.25325631214e-12)
(-88.322 0 6.55788148103e-11)
(-88.3220000001 0 -2.61557690416e-10)
(-88.3219999997 0 -2.75615601045e-10)
(-88.3219999999 0 3.80725515054e-11)
(-88.3220000002 0 -2.58951202441e-11)
(-88.322 0 3.46956400099e-11)
(-88.3220000001 0 1.52753753187e-10)
(-88.3219999995 0 1.4936111597e-10)
(-88.3219999995 0 -2.36500293353e-11)
(-88.3220000015 0 -3.04699936786e-13)
(-88.3220000012 0 2.94525786862e-11)
(-88.3219999981 0 2.74938228167e-11)
(-88.3219999984 0 7.80626688878e-11)
(-88.3220000005 0 -1.26438377382e-10)
(-88.3220000001 0 1.29855278218e-10)
(-88.3220000001 0 3.71416209223e-12)
(-88.3219999999 0 2.54014457888e-10)
(-88.3220000005 0 2.84931332529e-10)
(-88.3220000012 0 3.62896059061e-10)
(-88.3219999994 0 -2.91135977765e-11)
(-88.3219999995 0 1.48464639871e-10)
(-88.3220000004 0 3.94218909125e-10)
(-88.322 0 -3.24448678328e-11)
(-88.322 0 -5.36002272591e-10)
(-88.3219999998 0 -7.54115969877e-10)
(-88.3220000002 0 1.94782628831e-10)
(-88.3219999997 0 8.64168962437e-10)
(-88.3219999999 0 -1.07333689181e-09)
(-88.3220000003 0 -2.83267983587e-10)
(-88.322 0 1.63627626088e-10)
(-88.322 0 3.87656386728e-10)
(-88.322 0 -1.59172358127e-10)
(-88.322 0 2.41593393592e-10)
(-88.322 0 7.09405499721e-11)
(-88.322 0 3.1677187014e-10)
(-88.322 0 -4.6653099272e-11)
(-88.3220000002 0 5.97618326219e-10)
(-88.3219999997 0 5.10419574755e-10)
(-88.3219999996 0 -4.32308900104e-10)
(-88.3220000004 0 -1.28573523175e-10)
(-88.3220000001 0 2.98030016234e-10)
(-88.3220000007 0 -3.72643857283e-12)
(-88.3219999993 0 3.56530066493e-10)
(-88.3219999985 0 -4.18843559139e-10)
(-88.3220000015 0 -7.18513984237e-11)
(-88.3220000018 0 -2.38362592531e-10)
(-88.3219999992 0 1.6425186879e-10)
(-88.3219999999 0 1.1504274883e-10)
(-88.3219999998 0 -3.01514352603e-10)
(-88.3220000001 0 7.79087210453e-10)
(-88.3219999993 0 6.53020758427e-10)
(-88.3219999986 0 3.9521109273e-10)
(-88.3220000002 0 1.63246532397e-10)
(-88.3220000004 0 -1.6327165456e-11)
(-88.3220000002 0 -1.1044390372e-10)
(-88.321999999 0 -2.17743659662e-10)
(-88.322 0 4.09942853039e-10)
(-88.3220000005 0 6.22088782761e-10)
(-88.322 0 -6.28257320915e-12)
(-88.3219999999 0 4.30256414134e-10)
(-88.322 0 3.27389360606e-10)
(-88.322 0 -4.34183384961e-10)
(-88.322 0 1.77068997009e-11)
(-88.3219999998 0 9.28629420249e-11)
(-88.3220000003 0 -4.59984302936e-11)
(-88.3220000003 0 1.86417595784e-10)
(-88.3219999999 0 1.83559665359e-10)
(-88.3219999998 0 -5.25892213502e-10)
(-88.3219999998 0 5.01713910465e-10)
(-88.3219999997 0 4.07350054569e-10)
(-88.3219999997 0 5.33232920001e-10)
(-88.3220000003 0 1.17075745843e-10)
(-88.3220000003 0 -6.94978908318e-10)
(-88.322 0 -2.50620415268e-10)
(-88.3219999998 0 8.98100173726e-10)
(-88.3219999998 0 1.08979149263e-09)
(-88.3220000004 0 -6.33421928469e-10)
(-88.3219999999 0 -6.2173003936e-10)
(-88.3219999998 0 -4.5163860547e-10)
(-88.3219999998 0 -7.76802890118e-11)
(-88.3219999991 0 1.15766771752e-10)
(-88.3219999996 0 -4.54124823192e-10)
(-88.3220000013 0 5.26343936975e-10)
(-88.3220000001 0 7.21242538459e-10)
(-88.3219999991 0 -1.19138651706e-10)
(-88.322000002 0 -3.62411542351e-10)
(-88.3220000007 0 9.61639419033e-11)
(-88.3219999995 0 1.67942543168e-10)
(-88.3220000002 0 1.19286056511e-10)
(-88.3219999989 0 -1.23987126114e-10)
(-88.3220000003 0 -6.71264739502e-12)
(-88.3220000001 0 -5.89304116238e-11)
(-88.3219999999 0 4.47282091342e-12)
(-88.3220000003 0 5.80231907226e-11)
(-88.3219999996 0 4.63078800519e-11)
(-88.322 0 -2.28454689026e-11)
(-88.322 0 1.62989114162e-11)
(-88.322 0 9.55161955931e-12)
(-88.322 0 8.28210891116e-12)
(-88.322 0 1.15946104026e-11)
(-88.3220000001 0 -7.91028798993e-11)
(-88.3219999998 0 2.95525915474e-10)
(-88.3220000001 0 -2.09854271103e-10)
(-88.3220000002 0 -7.53891824482e-11)
(-88.3219999995 0 -1.8370661832e-11)
(-88.3220000002 0 1.0397939899e-10)
(-88.3220000001 0 2.78138069149e-10)
(-88.3219999998 0 -4.24596587233e-10)
(-88.3220000012 0 -4.66309429762e-10)
(-88.3220000002 0 3.01897140571e-10)
(-88.3219999994 0 3.50004729217e-10)
(-88.3220000007 0 4.75105845669e-11)
(-88.3219999983 0 4.0404606124e-10)
(-88.3219999979 0 -9.0052647194e-11)
(-88.3220000002 0 4.69725520252e-10)
(-88.3220000007 0 -2.55978887403e-10)
(-88.3220000009 0 -7.73548880805e-11)
(-88.3220000009 0 -2.51990737261e-10)
(-88.3220000004 0 4.85192325566e-10)
(-88.321999999 0 2.15896907612e-11)
(-88.3219999984 0 -2.84041560888e-10)
(-88.3220000013 0 4.96189431131e-11)
(-88.3220000004 0 2.99104732822e-11)
(-88.3219999989 0 5.10412326147e-11)
(-88.3220000018 0 -8.80235437376e-11)
(-88.3220000006 0 6.18887795231e-11)
(-88.321999999 0 -1.7299146863e-10)
(-88.3220000002 0 -1.69750543605e-10)
(-88.3219999998 0 4.0738380955e-10)
(-88.3219999997 0 -3.78972474003e-10)
(-88.3220000012 0 -3.31099454402e-10)
(-88.3219999993 0 -6.02762549624e-11)
(-88.3219999984 0 -1.21212518693e-10)
(-88.3219999999 0 8.83949429157e-12)
(-88.3220000008 0 -2.5095930547e-10)
(-88.322000002 0 -1.23896709852e-10)
(-88.322 0 3.65482316895e-11)
(-88.3219999983 0 -2.25527979767e-12)
(-88.3219999985 0 -1.11506358447e-12)
(-88.3220000012 0 -3.31913437042e-11)
(-88.3220000019 0 1.62835124871e-12)
(-88.322 0 -1.14736742385e-11)
(-88.321999999 0 -7.71086986734e-11)
(-88.321999999 0 4.75738364496e-11)
(-88.3220000007 0 -3.24184406218e-10)
(-88.3219999996 0 -3.52125089863e-10)
(-88.3219999989 0 -5.81461134957e-10)
(-88.3220000008 0 3.02234336592e-10)
(-88.3220000018 0 -4.48653609815e-10)
(-88.322 0 -3.75312394706e-10)
(-88.321999999 0 8.09857877456e-10)
(-88.3219999999 0 1.99095134446e-10)
(-88.3220000005 0 -1.20941919915e-10)
(-88.3220000004 0 -4.56675265078e-10)
(-88.3219999997 0 -1.40262091482e-10)
(-88.3219999999 0 6.2264742224e-10)
(-88.322 0 -1.73675696705e-10)
(-88.3219999999 0 -8.53655094854e-11)
(-88.3220000001 0 4.89698877484e-11)
(-88.322 0 8.56800632383e-11)
(-88.322 0 -1.96478659979e-10)
(-88.322 0 6.48119550452e-11)
(-88.322 0 3.55395310237e-11)
(-88.3220000001 0 1.00082235483e-11)
(-88.3219999996 0 -9.98724328005e-12)
(-88.322 0 -3.85694613701e-11)
(-88.3220000004 0 3.14163140633e-11)
(-88.3219999999 0 -3.76079543344e-11)
(-88.3219999998 0 1.17791905717e-10)
(-88.3220000002 0 -4.26992226378e-11)
(-88.3220000003 0 6.33544096523e-11)
(-88.3219999998 0 -6.83393390316e-11)
(-88.322 0 4.70789616715e-11)
(-88.3220000002 0 3.2308982975e-10)
(-88.3219999998 0 1.80056831323e-11)
(-88.3219999998 0 9.49385117568e-11)
(-88.3220000001 0 4.76666570088e-10)
(-88.3219999999 0 -5.14394428552e-10)
(-88.3219999997 0 -4.73828103966e-10)
(-88.3219999997 0 4.9693532032e-11)
(-88.3220000002 0 2.54256572134e-10)
(-88.3220000005 0 -9.94048737781e-11)
(-88.322 0 9.3954212917e-11)
(-88.3220000005 0 2.10175350345e-10)
(-88.3219999998 0 -3.8450357819e-10)
(-88.3219999999 0 -6.49008396482e-10)
(-88.322 0 1.91907780313e-10)
(-88.3220000002 0 -4.38429027704e-10)
(-88.3219999999 0 -3.54220334671e-10)
(-88.3220000001 0 4.28484962455e-10)
(-88.3220000005 0 -3.24060626786e-11)
(-88.3219999986 0 -1.20251915535e-10)
(-88.3220000008 0 7.86542547901e-11)
(-88.3220000019 0 -1.76140521647e-10)
(-88.3219999992 0 -1.06692238499e-10)
(-88.3219999993 0 3.80786415124e-10)
(-88.3219999996 0 -4.99535620233e-10)
(-88.3219999999 0 -3.58522254317e-10)
(-88.322 0 -5.17688796338e-10)
(-88.3219999998 0 3.503891758e-12)
(-88.3220000001 0 4.59771899091e-10)
(-88.322 0 2.71726794962e-11)
(-88.3219999999 0 -3.82208525941e-10)
(-88.3219999998 0 -7.08446281452e-10)
(-88.3220000004 0 2.02060509129e-10)
(-88.322 0 1.9800920926e-10)
(-88.3219999997 0 2.35884778622e-10)
(-88.3220000003 0 -2.72937141685e-10)
(-88.3219999998 0 -2.9460792907e-10)
(-88.3220000002 0 6.47284120461e-11)
(-88.322 0 -4.99344851275e-10)
(-88.322 0 -4.72121780801e-10)
(-88.3220000003 0 -9.58318168537e-11)
(-88.3219999994 0 4.14129368929e-10)
(-88.3219999997 0 -8.06606023113e-11)
(-88.3220000014 0 -9.41258914287e-11)
(-88.3220000016 0 -1.14902217851e-10)
(-88.321999999 0 -5.14612666716e-11)
(-88.3219999981 0 2.2670765321e-10)
(-88.3220000001 0 -4.86187384732e-11)
(-88.3220000013 0 8.5693079494e-11)
(-88.3219999999 0 -3.51012464844e-11)
(-88.3219999993 0 -2.37205539147e-11)
(-88.3220000005 0 4.1125311181e-11)
(-88.322 0 -7.93241086314e-12)
(-88.3219999995 0 -1.22910317793e-11)
(-88.3220000001 0 -4.15481606585e-11)
(-88.322 0 -2.35795901942e-11)
(-88.3220000002 0 4.65429246589e-11)
(-88.3219999998 0 -1.93581458159e-10)
(-88.3220000001 0 5.18193959181e-11)
(-88.322 0 1.17105187228e-10)
(-88.3219999995 0 -1.62196309112e-10)
(-88.3220000002 0 -1.86846694581e-10)
(-88.322 0 1.15560008433e-10)
(-88.3219999998 0 5.86346410956e-10)
(-88.3220000005 0 5.81208057609e-10)
(-88.3220000003 0 -2.85126210051e-10)
(-88.3219999999 0 -3.57977916996e-10)
(-88.3219999998 0 -2.32157624739e-10)
(-88.3219999996 0 -4.63267574944e-10)
(-88.3219999998 0 1.69397138779e-10)
(-88.3219999991 0 -4.3417232494e-10)
(-88.3219999993 0 3.547569865e-10)
(-88.3220000012 0 -1.80564305986e-10)
(-88.3220000004 0 1.45225513398e-10)
(-88.3220000003 0 -2.93012552936e-10)
(-88.3220000001 0 1.71565346544e-11)
(-88.322 0 -4.67508204117e-11)
(-88.322 0 2.35420121323e-12)
(-88.322 0 -7.4951895316e-11)
(-88.322 0 8.97313246226e-11)
(-88.322 0 4.14325324874e-11)
(-88.322 0 -9.591600224e-11)
(-88.3220000001 0 1.6739008291e-10)
(-88.322 0 1.5907393485e-10)
(-88.322 0 -4.75263172604e-10)
(-88.322 0 5.57270840545e-10)
(-88.322 0 5.39334251184e-10)
(-88.322 0 7.6731162243e-11)
(-88.322 0 1.21113087472e-10)
(-88.322 0 -3.66500733434e-11)
(-88.322 0 8.81103473169e-11)
(-88.322 0 -1.43682938098e-11)
(-88.322 0 1.55559661779e-12)
(-88.322 0 1.14068156944e-11)
(-88.322 0 -2.46904732318e-11)
(-88.322 0 1.48485486712e-11)
(-88.322 0 -1.49813076841e-11)
(-88.322 0 1.62772162142e-10)
(-88.322 0 -6.41986331979e-11)
(-88.322 0 -4.42689885514e-11)
(-88.322 0 8.39896454217e-11)
(-88.322 0 -2.6123496056e-11)
(-88.322 0 4.31952113126e-11)
(-88.322 0 -1.9776852187e-10)
(-88.322 0 4.75646425212e-11)
(-88.322 0 -9.19900694687e-11)
(-88.322 0 -2.62014181025e-11)
(-88.322 0 2.00964400042e-10)
(-88.3220000003 0 -1.68679028409e-10)
(-88.3219999999 0 1.65734715669e-10)
(-88.3219999997 0 -1.96623924311e-10)
(-88.3220000001 0 -7.36579784665e-10)
(-88.322 0 1.71890210569e-10)
(-88.322 0 3.13346798001e-10)
(-88.322 0 -2.87447102763e-11)
(-88.322 0 -8.56236629773e-11)
(-88.322 0 2.0137756385e-10)
(-88.322 0 -9.29086534704e-11)
(-88.322 0 -3.34932194736e-11)
(-88.322 0 -2.56286633384e-11)
(-88.322 0 -6.25146162877e-11)
(-88.322 0 1.48223958503e-10)
(-88.3219999998 0 -1.37274318613e-11)
(-88.3220000003 0 2.04046310443e-10)
(-88.3220000004 0 -5.47453013243e-11)
(-88.3219999996 0 -7.81837955004e-11)
(-88.3219999988 0 -1.73667890961e-10)
(-88.3219999989 0 6.83929798627e-11)
(-88.3220000018 0 1.31872654614e-10)
(-88.3220000021 0 -2.42114495282e-10)
(-88.3219999996 0 -1.06503915354e-10)
(-88.322 0 -4.72595015611e-11)
(-88.3219999993 0 -1.14187743974e-10)
(-88.3219999998 0 5.3886284257e-11)
(-88.3219999993 0 5.85795361651e-11)
(-88.3219999992 0 -1.02129878637e-09)
(-88.3220000006 0 -8.64687424015e-10)
(-88.322 0 -2.38138955446e-10)
(-88.3219999996 0 1.37706100538e-10)
(-88.3220000001 0 1.22882802251e-10)
(-88.3219999999 0 -1.65466539554e-10)
(-88.322 0 -5.33801559049e-11)
(-88.3219999997 0 7.49300985854e-11)
(-88.3219999999 0 5.93425319189e-11)
(-88.3220000003 0 -1.33778995804e-10)
(-88.322 0 -1.48011584675e-10)
(-88.322 0 -3.44840956294e-11)
(-88.322 0 -7.13647749303e-11)
(-88.322 0 1.04803742896e-11)
(-88.3219999999 0 -2.93902498755e-11)
(-88.3220000002 0 -1.0495376232e-11)
(-88.3220000001 0 -2.35691430144e-11)
(-88.3219999998 0 -3.24997965427e-11)
(-88.322 0 -4.16937047355e-11)
(-88.322 0 -3.74013617031e-11)
(-88.322 0 -4.76628543663e-12)
(-88.322 0 5.05477128046e-11)
(-88.322 0 -1.6958555696e-10)
(-88.3219999999 0 -7.20750565006e-11)
(-88.3219999998 0 5.08377023429e-10)
(-88.322 0 3.52292654335e-10)
(-88.3220000001 0 -4.68154583796e-10)
(-88.3220000001 0 -3.52535683938e-10)
(-88.322 0 -1.11110261025e-10)
(-88.3219999998 0 7.03524445499e-11)
(-88.3220000002 0 -1.69983096388e-10)
(-88.3220000003 0 1.29959568788e-10)
(-88.322 0 -1.50551137325e-10)
(-88.3220000001 0 -4.05455048908e-10)
(-88.3219999997 0 -3.17251909901e-10)
(-88.321999999 0 2.60762226336e-10)
(-88.3220000016 0 -4.27222390084e-10)
(-88.3220000016 0 -4.65391689601e-10)
(-88.3219999991 0 -4.12339213795e-10)
(-88.3219999999 0 4.470279287e-10)
(-88.3219999994 0 3.36423241243e-10)
(-88.3219999991 0 -3.72740016356e-10)
(-88.3220000003 0 -2.44106568968e-10)
(-88.322 0 5.28484071591e-10)
(-88.322 0 1.18482033832e-10)
(-88.322 0 -3.50902199336e-10)
(-88.322 0 -5.64751403922e-10)
(-88.322 0 2.39264329858e-10)
(-88.3220000001 0 -2.40554394807e-10)
(-88.3219999999 0 -8.96395962994e-11)
(-88.3219999997 0 -5.14042445878e-10)
(-88.322 0 4.2385903966e-10)
(-88.3220000001 0 -1.28149091772e-10)
(-88.322 0 6.57416147813e-11)
(-88.3220000006 0 2.86524492813e-10)
(-88.3219999998 0 -4.07144658449e-10)
(-88.3219999993 0 -9.50583834995e-10)
(-88.3220000011 0 -1.13917441998e-09)
(-88.3220000007 0 -4.22376862452e-10)
(-88.3219999995 0 1.00237192965e-09)
(-88.3219999998 0 5.78513118731e-10)
(-88.3219999993 0 -7.58395300606e-11)
(-88.3219999994 0 -7.04436557552e-10)
(-88.3220000013 0 7.50845511349e-10)
(-88.3220000011 0 -3.23144728631e-11)
(-88.3219999996 0 -1.81989633438e-10)
(-88.3219999994 0 -3.11721120453e-11)
(-88.322 0 1.0771721037e-10)
(-88.3220000007 0 5.31928919866e-11)
(-88.3220000004 0 2.50201701172e-10)
(-88.3219999996 0 -2.28540239072e-10)
(-88.3219999998 0 1.84572761861e-10)
(-88.3220000005 0 -2.67552403777e-10)
(-88.3220000004 0 2.25775596219e-10)
(-88.3219999998 0 2.63690536057e-10)
(-88.322 0 -2.21362890061e-10)
(-88.3219999998 0 -4.16250827194e-10)
(-88.322 0 -1.36154368863e-10)
(-88.322 0 -4.66928541463e-10)
(-88.322 0 -4.48256158742e-10)
(-88.322 0 -1.499696194e-10)
(-88.322 0 7.47059562958e-11)
(-88.322 0 3.83360931598e-11)
(-88.322 0 1.01841444367e-10)
(-88.3219999999 0 -3.54688807522e-10)
(-88.3220000004 0 -7.18212559838e-10)
(-88.3220000002 0 3.27616524945e-10)
(-88.3219999986 0 3.21433463221e-10)
(-88.3219999992 0 7.67886535828e-10)
(-88.322000002 0 -4.74471486531e-10)
(-88.3220000014 0 -4.53211323332e-10)
(-88.3219999993 0 3.04809595661e-10)
(-88.3219999992 0 2.92954812863e-10)
(-88.3220000001 0 2.89739082247e-10)
(-88.322 0 1.03977872581e-10)
(-88.3220000001 0 3.22795046016e-10)
(-88.322000001 0 1.03656985951e-10)
(-88.3220000002 0 3.90214463297e-11)
(-88.3219999987 0 9.62850443381e-11)
(-88.3220000002 0 -1.38263219338e-10)
(-88.3220000014 0 -3.90190613131e-10)
(-88.3220000004 0 5.40031466907e-10)
(-88.321999998 0 7.93051673455e-10)
(-88.3219999981 0 5.00206692134e-10)
(-88.3220000016 0 7.40900178075e-10)
(-88.3220000011 0 -5.05249522025e-10)
(-88.3219999983 0 -4.05656646035e-11)
(-88.3219999993 0 2.71000933894e-11)
(-88.3220000018 0 -6.40739103686e-11)
(-88.3220000013 0 5.83184220677e-11)
(-88.3219999988 0 -9.82578099185e-11)
(-88.3219999994 0 4.60188796777e-11)
(-88.3220000006 0 -1.18703036077e-10)
(-88.3220000005 0 -2.98225571896e-10)
(-88.3219999989 0 2.38769113892e-10)
(-88.321999999 0 3.35413180057e-10)
(-88.3220000011 0 4.38283726674e-10)
(-88.3219999995 0 -3.40492908832e-10)
(-88.3220000004 0 -3.44442315577e-10)
(-88.3220000011 0 7.08632579015e-10)
(-88.3220000003 0 1.04535445304e-10)
(-88.3220000009 0 1.14408400136e-10)
(-88.321999998 0 3.51978845249e-10)
(-88.3219999976 0 5.48668696746e-10)
(-88.3220000021 0 6.52018710467e-10)
(-88.3220000017 0 -2.41827392333e-10)
(-88.3219999981 0 -3.91077851077e-10)
(-88.3219999979 0 -1.90070061006e-10)
(-88.3220000011 0 4.42892319146e-10)
(-88.3220000006 0 4.05614549908e-10)
(-88.3219999993 0 2.965219117e-10)
(-88.322 0 -1.88889148168e-10)
(-88.3219999998 0 -2.14828569441e-10)
(-88.3220000004 0 1.35773980131e-10)
(-88.322 0 -2.57560087835e-11)
(-88.3219999999 0 -6.74334208756e-11)
(-88.3219999999 0 -1.14962471586e-10)
(-88.3219999992 0 1.2932826548e-10)
(-88.3220000008 0 1.05028060297e-10)
(-88.3220000014 0 3.91973462066e-11)
(-88.3219999998 0 -3.61014311763e-11)
(-88.322 0 -3.20486439664e-10)
(-88.3220000005 0 -2.79295188023e-11)
(-88.3219999996 0 -8.60666500082e-11)
(-88.321999999 0 -1.07206991035e-10)
(-88.3219999995 0 7.7649791128e-11)
(-88.322 0 -1.09503614952e-10)
(-88.3220000008 0 -1.07882672461e-11)
(-88.3220000017 0 -6.78274497126e-13)
(-88.3219999988 0 -6.89935930501e-11)
(-88.3219999979 0 1.93841777339e-10)
(-88.321999999 0 2.63827637274e-12)
(-88.3220000015 0 -3.57618988134e-10)
(-88.3220000025 0 -2.30833505493e-10)
(-88.3219999986 0 3.28386223086e-10)
(-88.3219999986 0 4.6383803172e-10)
(-88.322 0 1.12739117281e-10)
(-88.3220000001 0 -4.78325058648e-11)
(-88.3220000001 0 1.74146845523e-10)
(-88.3220000003 0 -9.40802508368e-11)
(-88.3220000005 0 1.61893907634e-10)
(-88.3220000001 0 4.0850243416e-10)
(-88.322 0 3.15805364024e-10)
(-88.3219999999 0 -2.5382978177e-10)
(-88.3220000003 0 5.23913741722e-10)
(-88.3219999994 0 2.75686553946e-10)
(-88.321999999 0 6.30446896532e-10)
(-88.3220000001 0 -5.05634079447e-10)
(-88.3220000014 0 -3.36345277325e-10)
(-88.3220000006 0 5.20487112593e-10)
(-88.3219999993 0 2.09231837662e-10)
(-88.322 0 -5.35603368692e-10)
(-88.322 0 -1.10998738501e-10)
(-88.3220000002 0 3.34502348542e-10)
(-88.322 0 5.90334340947e-10)
(-88.322 0 -4.0006311405e-10)
(-88.3220000008 0 2.3198344802e-10)
(-88.3219999992 0 6.00590260935e-11)
(-88.3219999984 0 5.24480088893e-10)
(-88.3219999996 0 -4.50753061328e-10)
(-88.3220000016 0 2.57269660793e-11)
(-88.3220000016 0 1.4880313224e-10)
(-88.3219999984 0 -5.51123140005e-10)
(-88.3219999989 0 1.14622345917e-10)
(-88.3220000004 0 7.62731808914e-10)
(-88.3220000006 0 7.34935643712e-10)
(-88.3219999999 0 4.56412583546e-10)
(-88.3219999991 0 -4.309558123e-10)
(-88.3220000013 0 -5.96838900448e-10)
(-88.3220000012 0 5.04697887355e-10)
(-88.3219999995 0 4.8660970963e-10)
(-88.3219999997 0 -3.97894445972e-10)
(-88.322 0 -5.15776216366e-10)
(-88.3219999999 0 1.31692280896e-10)
(-88.322 0 -1.73509478801e-10)
(-88.322 0 -3.9705972488e-11)
(-88.322 0 1.20123837654e-10)
(-88.322 0 -2.11191968446e-10)
(-88.322 0 1.8240155604e-10)
(-88.322 0 -1.12578873401e-10)
(-88.322 0 1.5257195854e-10)
(-88.322 0 -2.21608195069e-10)
(-88.322 0 -1.35608960835e-10)
(-88.3220000002 0 -2.10472066133e-10)
(-88.3220000005 0 1.71357536794e-11)
(-88.3219999999 0 3.54122291727e-10)
(-88.3219999996 0 1.77564630852e-10)
(-88.3220000002 0 -1.36190726983e-10)
(-88.3219999997 0 -2.80737545636e-10)
(-88.322 0 1.37730813734e-10)
(-88.3220000001 0 1.90835328308e-10)
(-88.3219999997 0 -2.26178421998e-10)
(-88.322 0 3.97291664176e-10)
(-88.322 0 7.13359947225e-10)
(-88.3220000001 0 -3.06640925728e-10)
(-88.3219999997 0 -3.31961732336e-10)
(-88.3219999997 0 -7.90385890667e-10)
(-88.3220000005 0 3.90980758586e-10)
(-88.322 0 4.15662511658e-10)
(-88.3219999998 0 -3.30478531659e-10)
(-88.3220000002 0 -2.98608226719e-10)
(-88.322 0 -3.33569013456e-10)
(-88.322 0 -2.15347875892e-10)
(-88.322 0 -2.26100146343e-10)
(-88.322 0 -1.10879866781e-10)
(-88.322 0 1.13179893739e-10)
(-88.322 0 1.21041049374e-10)
(-88.3219999997 0 -1.48936412632e-10)
(-88.3220000003 0 3.47307220418e-10)
(-88.3220000003 0 -3.04720100681e-10)
(-88.3219999996 0 -6.90849385204e-10)
(-88.322 0 -5.46750430432e-10)
(-88.3219999997 0 -1.32242301743e-10)
(-88.3220000002 0 -6.25329615193e-11)
(-88.3220000005 0 -4.64580026223e-10)
(-88.3219999999 0 2.33630778798e-10)
(-88.322 0 3.51628232128e-10)
(-88.322 0 -3.76941803394e-10)
(-88.3220000003 0 5.78747738312e-11)
(-88.3220000001 0 -5.1234717003e-10)
(-88.3219999997 0 -4.49699803857e-10)
(-88.322 0 1.3637998261e-10)
(-88.3219999999 0 -7.86909831359e-10)
(-88.322 0 -4.71835541174e-10)
(-88.3219999999 0 -4.76400246702e-10)
(-88.3220000007 0 2.23586997596e-10)
(-88.3220000006 0 2.9364088539e-10)
(-88.3219999986 0 -5.59894480629e-10)
(-88.3219999991 0 -1.14180010588e-10)
(-88.3220000014 0 -4.85477412828e-10)
(-88.3220000003 0 2.65792671725e-10)
(-88.3219999998 0 -4.53846902599e-10)
(-88.3220000003 0 -8.83099810676e-10)
(-88.3219999997 0 -1.97766590383e-10)
(-88.3219999999 0 8.83427482306e-11)