/*--------------------------------*- C++ -*----------------------------------*\
  =========                 |
  \\      /  F ield         | OpenFOAM: The Open Source CFD Toolbox
   \\    /   O peration     | Website:  https://openfoam.org
    \\  /    A nd           | Version:  6
     \\/     M anipulation  |
\*---------------------------------------------------------------------------*/
FoamFile
{
    version     2.0;
    format      ascii;
    class       volScalarField;
    location    "4.41e-05";
    object      p;
}
// * * * * * * * * * * * * * * * * * * * * * * * * * * * * * * * * * * * * * //

dimensions      [1 -1 -2 0 0 0 0];

internalField   nonuniform List<scalar> 
8192
(
6000000.00042
5999999.99926
6000000.00059
6000000.00049
6000000.00363
5999999.99733
6000000.00103
6000000.00019
6000000.00005
5999999.99994
6000000.00021
6000000.00001
6000000.00074
6000000.00148
6000000.00097
6000000.0004
6000000.00071
5999999.99894
5999999.99916
6000000.0007
5999999.99876
5999999.9973
6000000.00175
6000000.00002
5999999.99965
6000000.00007
5999999.9991
5999999.99935
5999999.99828
5999999.99968
5999999.99999
6000000.00026
5999999.99669
5999999.99355
6000000.00774
6000000.00777
5999999.99901
6000000.00477
5999999.99905
5999999.9978
6000000.00208
5999999.99853
5999999.99974
5999999.99997
6000000.00021
6000000.00011
6000000.00001
6000000.00034
5999999.99926
6000000.00108
5999999.99778
6000000.00024
6000000.00268
5999999.99663
5999999.99759
6000000.00166
6000000.00023
6000000.00279
5999999.99956
6000000.00471
5999999.99706
5999999.99761
5999999.99729
6000000.00135
6000000.00014
6000000.00153
5999999.99937
6000000.00331
5999999.99654
6000000.00263
5999999.99903
5999999.99777
6000000.00239
6000000.00288
6000000.00689
5999999.99675
5999999.99404
6000000.00657
6000000.00259
5999999.99585
5999999.99563
5999999.9931
6000000.00317
6000000.00587
6000000.00009
5999999.99894
6000000.00648
6000000.00484
5999999.99809
5999999.99725
5999999.99907
5999999.99871
5999999.99743
6000000.00325
5999999.99746
6000000.00143
6000000.00162
5999999.99982
6000000.00384
5999999.99826
5999999.99987
5999999.99988
5999999.99969
6000000.00003
5999999.99935
6000000.00028
6000000.00009
5999999.99999
5999999.99998
5999999.99998
6000000.00002
6000000.00007
5999999.99969
6000000.0005
5999999.99984
6000000.00098
6000000.00019
5999999.99916
6000000.00085
5999999.99956
5999999.99929
5999999.99912
6000000.00002
5999999.99983
6000000.00016
5999999.99974
6000000.00033
6000000.0005
6000000.00519
6000000.00052
5999999.99843
6000000.00064
5999999.99926
5999999.99927
6000000.00002
5999999.99997
6000000.00012
6000000.00105
5999999.9985
6000000.00376
6000000.00098
6000000.00329
6000000.00462
5999999.99731
5999999.99618
5999999.99802
6000000.00224
6000000.00239
6000000.00014
5999999.99987
5999999.99884
6000000.00086
5999999.99537
6000000.0013
5999999.9964
5999999.9964
6000000.00106
6000000.00018
5999999.99899
5999999.99929
5999999.99981
5999999.99981
6000000.00032
6000000.00063
5999999.9997
6000000.00241
6000000.00031
6000000.00073
5999999.99878
6000000.00038
5999999.99809
6000000.00301
6000000.00231
6000000.00293
6000000.00195
6000000.00436
6000000.00208
6000000.00115
5999999.99438
6000000.00226
6000000.00131
5999999.99865
6000000.00078
5999999.99843
6000000.00258
6000000.00118
6000000.00213
5999999.99482
5999999.99225
6000000.00184
6000000.00642
6000000.00421
5999999.99952
5999999.99989
6000000.00016
6000000.00004
5999999.99992
6000000.00001
5999999.99999
6000000.00001
6000000.00015
6000000.00001
6000000.00013
5999999.99822
5999999.99801
6000000.00234
5999999.99929
6000000.00003
6000000.00003
5999999.99998
6000000.00005
6000000.00018
6000000.00013
5999999.99946
5999999.99997
6000000.00003
5999999.99989
5999999.99998
5999999.99989
5999999.9971
6000000.00022
6000000.00137
5999999.99753
6000000.00086
6000000.00704
5999999.99395
5999999.99671
6000000.00542
6000000.00874
5999999.9917
5999999.99621
6000000.00187
6000000.00365
5999999.9962
6000000.00292
5999999.99993
6000000.00406
5999999.99811
6000000.00723
6000000.00371
5999999.99239
6000000.00021
6000000.00539
5999999.99783
6000000.00496
5999999.99491
5999999.99901
6000000.00179
6000000.0025
6000000.00301
6000000.0007
6000000.00198
6000000.00045
5999999.99896
5999999.99944
5999999.99935
5999999.99975
5999999.99899
6000000.00034
5999999.99822
6000000.00274
5999999.99884
5999999.99984
5999999.9995
5999999.9999
5999999.99992
6000000.00003
6000000.00069
6000000.00138
5999999.99751
6000000.00047
6000000.00027
6000000.00024
6000000.00213
5999999.99579
5999999.99748
6000000.00564
6000000.00169
5999999.9961
5999999.99539
5999999.99898
5999999.99539
5999999.99841
5999999.99502
6000000.00127
6000000.00408
5999999.99686
6000000.00063
5999999.99911
6000000.00143
5999999.99984
5999999.9994
6000000.00173
5999999.99773
6000000.00109
5999999.99997
5999999.99999
6000000.00012
6000000.00001
6000000.00001
6000000.00002
6000000.00025
5999999.99894
6000000.00165
5999999.99744
5999999.99967
5999999.99903
6000000.00083
6000000.0042
5999999.99814
5999999.99481
6000000.00223
6000000.00499
5999999.99825
6000000.00337
5999999.99841
6000000.00555
5999999.99718
5999999.99733
5999999.99676
6000000.00198
6000000.00147
5999999.99678
6000000.00168
6000000.00058
6000000.00079
6000000.00053
5999999.99971
6000000
6000000.00015
5999999.99889
6000000.00288
6000000.00243
6000000.00099
6000000.00035
5999999.99972
5999999.99777
5999999.99798
6000000.0005
6000000.00053
6000000
5999999.99898
5999999.99842
6000000.00098
5999999.99728
6000000.00072
5999999.9972
5999999.99456
5999999.99637
6000000.00279
5999999.99769
5999999.99612
6000000.00733
5999999.99876
6000000.00323
6000000.00029
5999999.9978
6000000.0039
5999999.9966
6000000.00308
5999999.9997
5999999.99964
6000000.00035
6000000
6000000.00021
6000000.00005
6000000.00013
6000000.00174
5999999.99857
6000000.00267
6000000.00068
5999999.99848
6000000.0016
5999999.99977
5999999.99978
6000000.0041
5999999.9989
6000000.003
6000000.00333
5999999.99347
5999999.99365
5999999.99588
5999999.99882
6000000.0006
6000000.00135
6000000.00167
5999999.99553
5999999.99172
6000000.00173
5999999.99703
5999999.99853
6000000.0047
5999999.99859
5999999.99888
6000000.00141
5999999.99728
5999999.99791
6000000.00655
5999999.99604
5999999.99863
5999999.99366
6000000.00108
6000000.00543
6000000.00014
5999999.99794
5999999.99193
6000000.00307
5999999.99983
6000000.00356
5999999.99814
5999999.99703
6000000.00243
5999999.99539
5999999.99481
6000000.00009
6000000.00307
5999999.99819
5999999.998
5999999.9976
6000000.00185
6000000.00211
5999999.99855
6000000.00127
5999999.99894
5999999.99956
6000000.00072
5999999.99992
5999999.99998
6000000.00004
5999999.99967
6000000.00091
5999999.99701
6000000.00063
6000000.00007
5999999.99963
5999999.99776
6000000.00111
6000000.00071
5999999.99918
6000000.00065
6000000.0011
5999999.99836
5999999.99914
6000000.00025
5999999.99947
5999999.99795
5999999.99712
5999999.99871
5999999.99674
6000000.00156
6000000.00165
6000000.00075
6000000.00018
5999999.99955
6000000.00172
5999999.99833
6000000.00278
6000000.00206
5999999.99509
6000000.00429
6000000.00155
6000000.00043
6000000.00101
5999999.99876
6000000.00213
5999999.99929
5999999.99946
6000000.00019
6000000.00004
5999999.99985
5999999.99811
6000000.00247
5999999.99762
5999999.99962
6000000.00104
5999999.99767
6000000.00254
5999999.99759
6000000.00134
5999999.99942
5999999.99985
5999999.99842
6000000.00266
6000000.0064
5999999.99805
5999999.99828
6000000.00042
6000000.00254
5999999.99891
5999999.99823
6000000.00389
5999999.99872
5999999.99996
5999999.99993
6000000.00054
6000000.00237
5999999.99806
6000000.00346
5999999.99872
5999999.99874
6000000.00172
5999999.99969
5999999.99978
6000000.00262
6000000.00121
6000000.002
5999999.99949
5999999.99876
5999999.99937
5999999.99668
5999999.99585
6000000.00197
6000000.00036
5999999.99866
5999999.99971
5999999.99927
5999999.99998
5999999.99898
6000000.00015
5999999.99953
6000000
6000000.00029
6000000.00002
6000000.00002
5999999.99975
6000000.00019
6000000.00001
5999999.99991
5999999.99989
5999999.99989
6000000.00006
6000000.00005
5999999.9999
5999999.99989
5999999.99983
6000000.00002
5999999.99987
5999999.99992
5999999.99987
5999999.99992
6000000.00001
6000000.00001
5999999.99987
5999999.99998
6000000.00002
6000000.00012
5999999.99864
6000000.00264
5999999.9983
5999999.99948
5999999.99961
5999999.99959
6000000.00002
5999999.99998
6000000.00001
6000000.00003
6000000.00021
6000000.00011
6000000.00002
6000000.00002
5999999.99981
5999999.99771
6000000.00263
6000000.00151
5999999.99939
5999999.994
5999999.99232
6000000.00199
6000000.00448
6000000.00149
6000000.00409
5999999.99678
6000000.00454
5999999.99407
6000000.00055
5999999.99678
6000000.00049
6000000.00041
6000000.00165
5999999.99945
6000000.00159
5999999.99722
6000000.00068
6000000.00027
6000000.00002
6000000.00019
6000000.00008
5999999.99979
5999999.99913
6000000.00161
5999999.9999
6000000.00001
6000000.00002
5999999.99992
5999999.99993
6000000.00002
6000000.00017
5999999.99959
5999999.9992
5999999.99915
5999999.9987
5999999.99984
5999999.99907
5999999.9981
6000000.00098
6000000.00075
6000000.00058
6000000.00177
5999999.99785
5999999.99707
6000000.0077
6000000.00353
6000000.00085
6000000.00358
5999999.99756
5999999.99945
6000000.00005
5999999.9998
6000000.00008
6000000.00006
6000000.00046
5999999.9998
6000000.00175
5999999.99912
5999999.99935
5999999.9998
5999999.99973
6000000.0004
6000000.00385
6000000.00014
5999999.99768
6000000.00315
6000000.00191
6000000.00107
6000000.00092
5999999.99752
5999999.9987
6000000.00481
6000000.00391
6000000.00294
5999999.99837
5999999.9979
6000000.00226
5999999.99974
5999999.99863
5999999.998
6000000.0025
6000000.00166
6000000.0004
6000000.00105
5999999.99905
6000000.00062
5999999.99963
6000000.00055
6000000.00052
6000000.00051
6000000.00053
5999999.9996
5999999.99903
6000000.00173
6000000.00132
5999999.99409
5999999.99538
6000000.00359
6000000.00149
6000000.00027
5999999.99844
6000000.0023
5999999.99786
6000000.00083
6000000.00148
6000000.00227
5999999.99443
6000000.00299
6000000.00185
6000000.00531
5999999.99499
5999999.99747
6000000.00149
6000000.00129
5999999.99459
5999999.99871
6000000.00273
6000000.0055
5999999.99884
6000000.00193
6000000.00141
6000000.00468
5999999.99708
6000000.00107
6000000.0017
5999999.99616
6000000.00328
6000000.00336
6000000.0057
6000000.00885
5999999.99506
5999999.99771
6000000.0042
6000000.00554
5999999.99397
5999999.99443
6000000.00226
5999999.99758
6000000.00001
6000000.00021
5999999.99756
6000000.00274
5999999.99805
6000000.00167
5999999.99714
5999999.99595
6000000.00264
6000000.00365
5999999.99932
6000000.00369
6000000.0017
6000000.00069
5999999.99946
6000000.00002
5999999.99869
6000000.00392
6000000.00779
5999999.99643
5999999.99896
5999999.99184
6000000.0054
6000000.00581
5999999.99591
5999999.99663
5999999.99624
5999999.99773
5999999.99611
6000000.00012
5999999.99936
6000000.00013
5999999.99987
5999999.99955
6000000.00237
5999999.99559
5999999.99611
5999999.99669
6000000.005
5999999.99988
5999999.99983
6000000.00087
5999999.99945
6000000.0018
5999999.99931
6000000.00154
6000000.00618
5999999.99616
5999999.99492
5999999.99421
6000000.00244
6000000.00245
5999999.99359
5999999.99799
5999999.99672
6000000.00138
5999999.99852
5999999.99445
6000000.00374
6000000.00312
5999999.99996
6000000.00088
5999999.99996
6000000.00016
6000000.00005
6000000.00005
6000000.00001
5999999.99998
5999999.99992
5999999.99993
6000000.00015
6000000.0001
5999999.99942
6000000.0011
6000000.0045
6000000.00035
6000000.00016
6000000.00189
5999999.99943
6000000.00236
6000000.00024
5999999.99973
5999999.99994
5999999.99996
6000000.00162
5999999.99786
5999999.99774
6000000.00146
5999999.99793
6000000.0005
5999999.99973
5999999.99992
5999999.99984
6000000.00001
5999999.99987
6000000.00004
5999999.99976
5999999.9973
6000000.00255
5999999.99919
5999999.9995
6000000.00008
5999999.99689
6000000.00057
6000000.00058
6000000.00003
6000000.00021
5999999.99913
6000000.00285
6000000.00001
5999999.99993
6000000.00051
5999999.99977
6000000.00043
5999999.99843
6000000.00418
6000000.00289
5999999.99715
5999999.99811
6000000.00215
5999999.99802
6000000.00275
5999999.99972
6000000.00001
5999999.99998
5999999.9998
6000000.00003
5999999.99986
6000000.00116
5999999.99782
6000000.00163
6000000.00074
6000000.00049
5999999.99959
6000000.00053
5999999.99742
6000000.00543
6000000.00289
5999999.99554
6000000.00162
6000000.00331
6000000.004
5999999.99691
5999999.99614
6000000.00237
5999999.99882
5999999.99976
6000000.00008
5999999.99994
5999999.99992
5999999.99998
6000000.00002
5999999.99991
5999999.99994
5999999.99991
6000000.00004
5999999.99908
6000000.00152
5999999.99784
5999999.99942
6000000.00159
5999999.99484
6000000.00427
6000000.00413
6000000.00181
5999999.99908
6000000.00341
6000000.00479
5999999.99801
5999999.99696
6000000.00394
5999999.99982
6000000.00327
6000000.00457
6000000.00057
6000000.00597
6000000.00003
5999999.9998
6000000.00105
6000000.00092
5999999.99993
5999999.99999
6000000.00339
5999999.99926
6000000.00127
6000000.00195
6000000.00342
6000000.00172
5999999.99507
6000000.00099
6000000.00043
5999999.99978
5999999.99931
6000000.0045
6000000.00227
5999999.99861
6000000.0023
5999999.99971
5999999.99982
6000000.00067
5999999.99931
6000000.00145
5999999.99321
6000000.00282
6000000.00215
5999999.99937
5999999.99981
6000000.00027
6000000.00026
6000000.00037
6000000.00002
6000000.00002
6000000
6000000.00001
5999999.99989
6000000.00001
5999999.99987
6000000
6000000.00002
5999999.99987
6000000.00018
5999999.99994
5999999.99987
5999999.99995
6000000
5999999.99942
5999999.99975
6000000.00031
6000000.00073
5999999.99821
5999999.99837
6000000.00079
6000000.00068
5999999.99977
6000000.0002
5999999.99897
6000000.00223
6000000.00156
6000000.00072
6000000.00031
5999999.99949
5999999.99873
6000000.00217
5999999.99517
6000000.00673
5999999.99663
5999999.99568
6000000.00458
6000000.00309
6000000.00539
6000000.0001
6000000.00024
5999999.99611
5999999.99535
5999999.99641
6000000.00109
5999999.99767
6000000.00392
5999999.99976
5999999.99828
6000000.00071
5999999.99805
6000000.00095
5999999.99808
6000000.00409
5999999.99485
5999999.99672
6000000.00484
5999999.99594
5999999.99689
5999999.99847
6000000.00094
6000000.00097
6000000.0008
6000000.00002
6000000.00086
5999999.99977
6000000.00182
5999999.99581
6000000.00092
6000000.00061
5999999.99997
5999999.99766
5999999.99944
5999999.99969
5999999.99747
5999999.99903
6000000.00076
5999999.99996
6000000.00087
6000000.00175
5999999.99864
5999999.99889
6000000.00326
5999999.99927
5999999.99991
5999999.99998
6000000.00001
6000000.00002
6000000.00012
6000000.00002
6000000.00001
6000000.00014
6000000.00037
5999999.99736
6000000.00017
5999999.99996
6000000
6000000
6000000.00062
5999999.99826
6000000.00258
6000000.0016
5999999.99496
6000000.00681
5999999.99383
5999999.99238
6000000.00348
6000000.00484
5999999.99363
5999999.99788
5999999.99814
5999999.99982
6000000.00145
5999999.99862
6000000.00134
5999999.99721
5999999.99803
5999999.99961
5999999.9985
6000000.00171
5999999.99766
6000000.00195
6000000.00317
5999999.9954
5999999.99683
5999999.99576
5999999.99974
6000000.00478
6000000.00158
5999999.99633
5999999.99298
6000000.00392
6000000.00355
5999999.99454
5999999.9986
6000000.00438
6000000.00392
5999999.99724
5999999.99857
6000000.0029
6000000.00005
6000000.00003
6000000.00001
6000000.00001
6000000.00016
6000000.00157
5999999.9988
5999999.9987
5999999.99942
5999999.99978
6000000.00034
6000000.00004
6000000.00019
5999999.99879
5999999.99799
6000000.00107
6000000.00009
6000000.00003
6000000.00002
6000000
5999999.99971
5999999.99999
6000000.00006
5999999.99997
5999999.99878
6000000.00023
6000000.00259
5999999.99784
6000000.00013
5999999.99994
5999999.9958
6000000.00114
6000000.00065
6000000.0028
6000000.00128
6000000.00029
6000000.00028
6000000.0005
5999999.99775
6000000.00341
5999999.99779
6000000.00201
6000000.0017
6000000.00417
5999999.99971
5999999.99959
6000000.00601
6000000.00243
6000000.00224
6000000.00167
5999999.99598
5999999.99916
6000000.00176
6000000.00026
5999999.99766
5999999.99808
6000000.00108
5999999.99675
5999999.99946
5999999.99773
6000000.00019
6000000.00215
5999999.99933
5999999.99903
5999999.9989
5999999.99984
5999999.99977
6000000.00024
6000000.00006
6000000.00013
5999999.99958
6000000.00105
6000000.0013
5999999.99725
6000000
6000000.00009
6000000.00002
6000000.00006
6000000.00002
6000000.0002
6000000.00104
5999999.99872
6000000.00167
6000000.0012
5999999.99722
6000000.00402
5999999.99472
5999999.99939
6000000.00264
6000000.0066
6000000.00314
6000000.00145
6000000.00158
5999999.99413
5999999.9978
5999999.99826
5999999.9998
6000000.00197
6000000.00521
5999999.99406
5999999.9971
5999999.99459
6000000.0059
6000000.00282
6000000.00242
5999999.99917
6000000.00037
6000000.00083
6000000.00126
5999999.99967
5999999.99909
5999999.99988
6000000.00002
6000000
6000000.0005
5999999.99922
6000000.00097
5999999.99917
6000000.00034
5999999.99886
5999999.99559
6000000.00162
6000000.00079
5999999.99577
5999999.99553
6000000.00524
5999999.99775
5999999.99563
6000000.0018
6000000.00646
5999999.99519
6000000.0035
5999999.99897
5999999.99895
6000000.00374
5999999.9999
6000000.00012
6000000.00001
6000000.00001
6000000.00003
6000000.00001
6000000.00003
6000000.00002
6000000.00007
6000000.00017
6000000.00022
6000000.00003
6000000.00001
5999999.99987
6000000.00039
6000000.00173
5999999.99659
6000000.0035
6000000.0052
5999999.99875
6000000.00173
6000000.00108
6000000.00139
5999999.99953
6000000.00045
5999999.99427
6000000.00089
5999999.99917
6000000.00152
6000000.00122
5999999.99905
5999999.99869
5999999.99937
5999999.99954
6000000.00009
5999999.99916
6000000.00096
6000000.00242
5999999.99871
5999999.99949
5999999.99953
6000000.00021
6000000.00002
6000000
5999999.99995
5999999.99949
6000000.00044
5999999.99954
5999999.99751
6000000.00286
5999999.99714
6000000.00191
5999999.99942
5999999.99962
5999999.99997
5999999.99923
6000000.00223
5999999.99536
6000000.00201
5999999.99967
5999999.99972
6000000.00002
5999999.99955
5999999.99995
5999999.99994
6000000.00042
5999999.99929
5999999.99911
6000000.00005
5999999.99994
5999999.99992
6000000
6000000.00009
5999999.99994
5999999.99992
6000000
5999999.99994
5999999.99997
6000000.00001
5999999.99993
6000000.00024
6000000.00001
6000000.00013
6000000.00012
6000000.00097
5999999.99891
6000000.00202
5999999.99725
6000000.00149
6000000.00111
6000000.00217
6000000.00252
5999999.9972
5999999.99974
5999999.99841
6000000.00138
5999999.99915
5999999.99812
6000000.00055
5999999.99877
5999999.99944
5999999.99989
6000000.00037
6000000.00325
6000000.00102
6000000.00314
5999999.99911
6000000.00023
6000000.00185
5999999.99574
6000000.00144
5999999.99688
6000000.00392
6000000.00283
5999999.9952
5999999.99613
5999999.9956
6000000.00496
6000000.00201
6000000.00593
5999999.99695
5999999.99719
6000000.00099
5999999.99431
5999999.99543
5999999.99754
5999999.99827
6000000.0009
5999999.99627
5999999.9977
5999999.99259
5999999.99948
5999999.99515
5999999.99767
5999999.99698
5999999.99697
5999999.99681
5999999.99557
6000000.00326
6000000.00049
6000000.00073
5999999.9963
6000000.00101
5999999.99983
5999999.99976
6000000.00016
5999999.99976
5999999.99972
5999999.99689
6000000.00419
5999999.99399
5999999.99424
6000000.00143
5999999.99523
5999999.99496
6000000.0062
5999999.99529
5999999.99394
6000000.0006
6000000.00162
5999999.99997
6000000.00019
6000000.00003
6000000.00002
5999999.99993
6000000.00042
5999999.99966
6000000.00042
6000000.00026
6000000.00006
6000000.00002
5999999.99992
5999999.99994
6000000.00007
6000000.00068
5999999.99897
5999999.99951
6000000.00127
5999999.99977
5999999.99993
5999999.99987
5999999.99957
5999999.99919
6000000.00026
6000000.00007
5999999.99938
5999999.9999
5999999.9996
6000000.00011
6000000.00111
5999999.99948
6000000.00085
6000000.00183
6000000.00225
5999999.99752
5999999.99819
6000000.00219
5999999.99983
6000000.00026
6000000.00053
5999999.9979
6000000.00204
6000000.00155
6000000.00035
5999999.9993
6000000.00002
5999999.99767
6000000.00208
6000000.00042
6000000.00122
5999999.9992
5999999.99857
6000000.00435
6000000.00483
5999999.99284
5999999.99707
6000000.00209
6000000.00151
5999999.99881
6000000.00124
6000000.0003
6000000.00261
5999999.9989
6000000.00111
5999999.99994
5999999.99992
6000000
6000000.00003
5999999.99998
5999999.99998
5999999.99999
6000000
6000000.00003
6000000.00012
6000000
6000000
6000000.00001
6000000
6000000.00012
6000000
6000000.00001
5999999.99994
5999999.99996
6000000.00012
5999999.99999
5999999.99995
6000000.00012
6000000
6000000
5999999.99992
6000000.00005
5999999.99995
6000000.00002
6000000.00023
5999999.99962
5999999.99955
5999999.99966
6000000.00025
6000000.00171
5999999.99915
5999999.99984
5999999.99993
6000000.00005
6000000
6000000.00009
5999999.99994
6000000
6000000
5999999.99994
5999999.99956
6000000.00044
5999999.9988
6000000.00215
6000000.0002
5999999.99916
6000000.00146
5999999.99858
6000000.0025
6000000.00409
5999999.99922
5999999.99962
6000000.00636
6000000.00113
6000000.00049
6000000.00036
5999999.99987
6000000.00003
6000000.00006
6000000.00019
6000000.00004
6000000.00003
6000000.00004
5999999.99985
6000000.00018
6000000.00015
6000000.0002
6000000.00012
5999999.99989
6000000.00002
5999999.99992
6000000.00002
6000000.00005
6000000.00046
5999999.99847
5999999.99809
6000000.00325
5999999.99794
6000000.00295
5999999.99777
5999999.99916
6000000.00018
5999999.99787
5999999.99922
6000000.00256
5999999.99634
5999999.99451
6000000.00052
5999999.99433
5999999.99303
6000000.00155
5999999.99723
5999999.99943
5999999.99632
6000000.00187
6000000.00147
5999999.99786
6000000.00317
5999999.99831
5999999.99854
6000000.00143
6000000.00156
6000000.0003
5999999.99958
5999999.99992
6000000.00004
5999999.99992
5999999.99993
6000000.00069
5999999.99968
6000000.00112
5999999.9988
5999999.9988
6000000.00028
5999999.9989
5999999.99967
5999999.99811
5999999.99905
5999999.99912
5999999.99998
5999999.99909
6000000.00307
5999999.99929
5999999.99937
5999999.99953
5999999.99998
5999999.99998
5999999.9999
5999999.9999
6000000.00012
5999999.99998
5999999.99998
6000000.00007
5999999.99999
5999999.99998
6000000.00002
5999999.99998
6000000.00009
5999999.99972
6000000.00078
5999999.99787
5999999.99935
6000000.0002
6000000
5999999.99998
5999999.99997
6000000
5999999.9999
5999999.99987
5999999.99999
5999999.9999
5999999.99933
6000000.0005
5999999.99962
6000000.00049
5999999.99989
5999999.99988
6000000.00132
5999999.99958
5999999.99972
5999999.99995
6000000.00004
5999999.99992
5999999.99998
5999999.9999
5999999.99992
5999999.99998
5999999.99986
5999999.99929
6000000.00023
5999999.99909
6000000.00295
5999999.99945
6000000.00017
6000000.00007
5999999.99987
5999999.99972
6000000.00054
5999999.99951
5999999.99562
6000000.00283
6000000.00008
6000000.0001
6000000.00009
6000000.00054
6000000.00074
5999999.9985
6000000.00265
6000000.00345
6000000.00052
5999999.99857
6000000.00272
6000000.00178
5999999.99815
6000000.00367
6000000.00055
6000000.0025
5999999.9969
5999999.99787
6000000.00056
5999999.9991
6000000.00009
5999999.99738
6000000.00302
6000000.00051
5999999.99976
6000000.00008
5999999.99839
6000000.00192
5999999.99887
6000000.0017
5999999.99626
6000000.00413
6000000.00387
5999999.99801
6000000.00162
5999999.99392
5999999.99356
6000000.00357
6000000.0029
6000000.00526
5999999.99849
5999999.99679
6000000.00475
5999999.99681
5999999.99841
5999999.99885
5999999.99896
6000000.00017
5999999.99944
6000000.00009
5999999.99972
5999999.99978
6000000.00005
5999999.99845
6000000.00129
5999999.99978
5999999.99978
6000000.00072
5999999.99932
6000000.00084
5999999.99696
5999999.99989
5999999.99998
5999999.99976
5999999.99893
5999999.99841
6000000.00167
6000000.00081
5999999.99959
6000000.00536
6000000.0024
5999999.99636
6000000.00241
5999999.99867
6000000.0051
6000000.00335
5999999.99703
5999999.99605
5999999.99875
6000000.00654
6000000.00201
5999999.99757
5999999.99722
5999999.99534
6000000.00296
5999999.99689
5999999.99543
5999999.99901
5999999.99465
6000000.00415
5999999.99738
5999999.99708
5999999.99889
6000000.00143
5999999.99742
5999999.99838
6000000.0016
6000000.00104
5999999.99745
5999999.99739
5999999.99661
5999999.99649
5999999.99691
5999999.9978
6000000.00021
5999999.99491
5999999.99451
6000000.00036
5999999.99964
5999999.99607
5999999.9963
5999999.99526
5999999.99456
6000000.00482
5999999.99789
5999999.99369
5999999.99959
5999999.99559
6000000.00184
6000000.00502
5999999.99253
5999999.99431
5999999.99763
6000000.00482
6000000.0015
5999999.99859
6000000.00324
6000000.00397
5999999.99984
6000000.00613
5999999.99618
5999999.99352
6000000.00373
6000000.00148
5999999.99972
5999999.99458
5999999.99647
6000000.00279
5999999.99615
5999999.9987
6000000.00214
5999999.99895
6000000.00287
6000000.00716
6000000.00339
5999999.99955
5999999.99521
5999999.99718
6000000.00587
6000000.00228
5999999.99555
5999999.99709
6000000.00082
6000000.00633
6000000.00104
5999999.99895
5999999.99986
6000000.00207
5999999.99873
5999999.9991
6000000.00397
6000000.00222
5999999.99693
6000000.00267
5999999.99657
5999999.99968
5999999.99737
6000000.00099
6000000.00163
5999999.99397
5999999.99995
6000000.0011
5999999.9941
5999999.99784
6000000.00316
5999999.99819
5999999.99814
6000000.00288
5999999.99886
5999999.99659
5999999.99618
5999999.99865
5999999.99683
5999999.9993
5999999.99783
6000000.0069
5999999.99755
6000000.0009
6000000.00536
5999999.99859
6000000.0019
6000000.00017
6000000.00883
5999999.99705
6000000.00056
6000000.00643
6000000.00711
5999999.99886
5999999.9976
6000000.01013
6000000.008
6000000.0062
5999999.99812
5999999.99777
6000000.00802
6000000.00868
6000000.00174
6000000.00676
6000000.00243
5999999.99472
6000000.00678
6000000.00824
6000000.0001
5999999.99708
6000000.00768
6000000.0027
5999999.99381
6000000.00237
6000000.00219
6000000.0091
6000000.00794
5999999.99755
6000000.0021
6000000.00741
5999999.99626
5999999.99904
6000000.00657
6000000.00948
6000000.00039
6000000.00626
6000000.00581
6000000.00485
5999999.99811
6000000.00102
6000000.00845
6000000.00952
6000000.01027
6000000.00305
6000000.00281
6000000.00642
6000000.01053
5999999.99969
6000000.00272
6000000.00583
5999999.99654
6000000.00555
6000000.00531
6000000.0098
6000000.00423
6000000.00748
6000000.00588
5999999.99345
6000000.00689
6000000.0022
5999999.99827
6000000.0088
5999999.99879
5999999.99987
5999999.99865
6000000.00051
5999999.9983
5999999.99969
5999999.99883
5999999.99952
5999999.99931
5999999.9995
5999999.99737
5999999.99784
5999999.9996
5999999.99813
6000000.00011
5999999.99821
5999999.99871
5999999.99803
6000000.00019
5999999.99801
5999999.99733
5999999.99837
5999999.99972
5999999.99852
5999999.99881
5999999.99969
5999999.99741
5999999.99852
5999999.99928
5999999.99572
5999999.99837
6000000.00027
5999999.99909
5999999.99661
5999999.9994
5999999.99756
5999999.99986
5999999.99895
5999999.99872
5999999.99669
5999999.99933
5999999.99993
5999999.99787
5999999.99935
5999999.99969
5999999.99866
5999999.99877
5999999.99924
5999999.99671
5999999.99676
5999999.99934
5999999.9999
6000000.00009
6000000.00021
5999999.99819
5999999.99909
5999999.99795
5999999.99832
5999999.99834
5999999.99865
5999999.99959
6000000.00035
6000000.00207
5999999.99834
5999999.99938
5999999.99942
5999999.99982
5999999.99966
6000000.00067
5999999.99975
5999999.9996
6000000.00041
5999999.99974
5999999.99967
5999999.99971
5999999.99974
6000000.00044
5999999.99997
5999999.99977
5999999.99956
6000000.00025
6000000.00037
5999999.99984
6000000.00031
5999999.99977
6000000.00038
5999999.99984
5999999.99976
6000000.00019
5999999.99997
6000000.00042
5999999.99979
6000000
5999999.99951
6000000.0003
6000000.00046
6000000.00019
6000000.0005
5999999.99981
6000000.0005
6000000.0005
5999999.9997
6000000.00019
5999999.99979
6000000.00035
6000000.00009
5999999.99958
6000000.00054
6000000.00023
6000000.00039
6000000.00032
5999999.99948
5999999.99968
5999999.99974
6000000.00013
6000000.00008
6000000.00033
6000000.00042
5999999.9997
5999999.99994
6000000.00027
6000000
6000000.00033
6000000.00012
6000000.00015
6000000.00043
5999999.99966
6000000.00058
6000000.00068
6000000.00092
6000000.00091
6000000.00102
6000000.00067
6000000.00097
6000000.00081
6000000.00122
6000000.00065
6000000.00081
6000000.00078
6000000.00081
6000000.00073
6000000.00076
6000000.00083
6000000.00093
6000000.0007
6000000.00085
6000000.00106
6000000.00085
6000000.001
6000000.0011
6000000.00066
6000000.001
6000000.00088
6000000.00084
6000000.0007
6000000.00056
6000000.00093
6000000.00085
6000000.00077
6000000.00092
6000000.00083
6000000.00113
6000000.00069
6000000.00092
6000000.00065
6000000.00078
6000000.00055
6000000.00082
6000000.00091
6000000.00095
6000000.00099
6000000.00083
6000000.0009
6000000.0009
6000000.00071
6000000.00092
6000000.00107
6000000.00113
6000000.00074
6000000.00078
6000000.00074
6000000.00088
6000000.00095
6000000.00087
6000000.00094
6000000.00099
6000000.00098
6000000.00092
6000000.00085
6000000.0011
6000000.00131
6000000.00085
5999999.999
5999999.99881
5999999.99892
5999999.99902
5999999.99887
5999999.99932
5999999.99888
5999999.99884
5999999.99872
5999999.9988
5999999.99896
5999999.99909
5999999.99912
5999999.99893
5999999.99875
5999999.99882
5999999.99881
5999999.99901
5999999.99894
5999999.99909
5999999.9989
5999999.99884
5999999.99917
5999999.99913
5999999.99883
5999999.99895
5999999.99933
5999999.9989
5999999.99898
5999999.99906
5999999.99901
5999999.9994
5999999.99909
5999999.99912
5999999.99889
5999999.99889
5999999.99919
5999999.9988
5999999.99866
5999999.99874
5999999.99904
5999999.99913
5999999.99888
5999999.99903
5999999.99907
5999999.99896
5999999.99941
5999999.99909
5999999.99884
5999999.99901
5999999.99889
5999999.99876
5999999.99888
5999999.99873
5999999.999
5999999.99893
5999999.99905
5999999.99909
5999999.99895
5999999.99895
5999999.99892
5999999.99901
5999999.99889
5999999.99885
5999999.99951
5999999.99942
5999999.99952
5999999.99975
5999999.99967
5999999.99975
5999999.99968
5999999.99967
5999999.99974