/*--------------------------------*- C++ -*----------------------------------*\
  =========                 |
  \\      /  F ield         | OpenFOAM: The Open Source CFD Toolbox
   \\    /   O peration     | Website:  https://openfoam.org
    \\  /    A nd           | Version:  6
     \\/     M anipulation  |
\*---------------------------------------------------------------------------*/
FoamFile
{
    version     2.0;
    format      ascii;
    class       volVectorField;
    location    "4.41e-05";
    object      U;
}
// * * * * * * * * * * * * * * * * * * * * * * * * * * * * * * * * * * * * * //

dimensions      [0 1 -1 0 0 0 0];

internalField   nonuniform List<vector> 
8192
(
(-88.3220000001 0 -2.73965818907e-10)
(-88.3219999996 0 -5.05065347622e-11)
(-88.3220000001 0 -6.71625329423e-11)
(-88.3220000002 0 -1.87180444561e-10)
(-88.3219999996 0 -5.88931998739e-11)
(-88.3219999998 0 2.43588677706e-11)
(-88.3220000002 0 -3.00933012801e-12)
(-88.322 0 5.15796260483e-11)
(-88.322 0 -2.06138116832e-10)
(-88.322 0 -5.23389393661e-10)
(-88.3219999999 0 -5.94197662623e-10)
(-88.322 0 3.13705717265e-10)
(-88.3220000001 0 5.99535953921e-10)
(-88.322 0 -6.20162609638e-10)
(-88.3219999999 0 -5.79882388993e-10)
(-88.3219999999 0 2.97153202508e-10)
(-88.3219999999 0 1.84062256491e-10)
(-88.3219999999 0 5.01863208557e-10)
(-88.3220000001 0 -3.9726490591e-10)
(-88.322 0 -4.53341634651e-10)
(-88.3219999998 0 2.52830669855e-10)
(-88.3220000002 0 3.36237034576e-10)
(-88.3220000002 0 -4.54095412765e-10)
(-88.3219999999 0 -4.89567981175e-10)
(-88.322 0 1.30389141824e-10)
(-88.3219999999 0 1.23335803624e-10)
(-88.3219999999 0 1.67191581508e-10)
(-88.3219999999 0 1.34174964787e-10)
(-88.3220000002 0 2.26120814122e-10)
(-88.3220000001 0 -1.10432011463e-10)
(-88.3219999999 0 1.69441149645e-10)
(-88.3219999998 0 -9.25992195201e-12)
(-88.3219999992 0 9.30676070259e-11)
(-88.3220000014 0 4.43002323353e-10)
(-88.322000002 0 -6.41730896983e-10)
(-88.321999999 0 -5.41680569682e-10)
(-88.3219999998 0 -2.79526938365e-11)
(-88.3219999996 0 -4.89670981422e-10)
(-88.3219999988 0 1.73176053945e-10)
(-88.3220000005 0 1.26743832336e-10)
(-88.3220000001 0 -1.80178685289e-11)
(-88.3219999999 0 3.12496860254e-11)
(-88.3220000001 0 -1.29779194505e-11)
(-88.322 0 -1.34428907434e-11)
(-88.322 0 -4.85273434344e-11)
(-88.322 0 -2.75353776155e-11)
(-88.322 0 -1.52648620278e-11)
(-88.322 0 -1.15765641107e-11)
(-88.322 0 9.02940830157e-12)
(-88.3219999999 0 -5.86625378357e-11)
(-88.3219999999 0 6.89178364132e-11)
(-88.3220000004 0 -2.53059925738e-11)
(-88.3219999996 0 -1.63189823974e-10)
(-88.3219999995 0 2.59841857445e-10)
(-88.322000001 0 1.50445041919e-10)
(-88.3220000005 0 -2.15039054688e-10)
(-88.3219999999 0 -4.3615849934e-11)
(-88.3219999998 0 -1.38488207542e-10)
(-88.3220000001 0 -3.47062498799e-11)
(-88.3219999993 0 -2.33235866315e-10)
(-88.3219999987 0 2.85695361353e-10)
(-88.3219999998 0 3.53379842933e-10)
(-88.3220000007 0 3.35212475704e-10)
(-88.3220000013 0 3.67727295642e-11)
(-88.322 0 -2.24175168146e-10)
(-88.3219999999 0 -6.67350089191e-11)
(-88.3220000001 0 7.55724635135e-11)
(-88.3219999998 0 4.55175890324e-12)
(-88.322 0 1.54318530559e-10)
(-88.3220000001 0 -9.59092985358e-11)
(-88.3219999997 0 2.62119496851e-11)
(-88.3220000004 0 3.82349464915e-12)
(-88.3220000011 0 -4.21492439451e-13)
(-88.3220000007 0 -4.1279635827e-11)
(-88.3219999984 0 4.36574336197e-11)
(-88.3219999977 0 -1.68739587859e-10)
(-88.3220000017 0 -1.73507406197e-11)
(-88.3220000022 0 -1.44606193633e-10)
(-88.3219999983 0 -2.4248257874e-10)
(-88.3219999986 0 2.32122223094e-10)
(-88.3219999997 0 1.42248775313e-10)
(-88.3220000013 0 1.31739233266e-10)
(-88.3220000018 0 -2.67774179483e-10)
(-88.3219999988 0 -1.61240451635e-10)
(-88.3219999987 0 -2.40962245352e-11)
(-88.3220000012 0 3.82652065968e-11)
(-88.3220000014 0 1.58214146109e-10)
(-88.321999999 0 -5.95112444433e-11)
(-88.3219999988 0 3.7183133877e-10)
(-88.322 0 -2.16245811311e-10)
(-88.3220000001 0 2.92188223245e-10)
(-88.3219999999 0 2.47672313039e-10)
(-88.3220000003 0 -1.27796390777e-11)
(-88.322 0 4.37225033241e-11)
(-88.3219999999 0 4.17916899058e-11)
(-88.3220000003 0 3.18868762029e-13)
(-88.3219999999 0 -1.64807906165e-10)
(-88.3220000002 0 -3.83127460071e-10)
(-88.322 0 4.32818364499e-10)
(-88.3219999997 0 5.29154482945e-10)
(-88.3220000001 0 -6.33360083402e-12)
(-88.322 0 2.78786465661e-10)
(-88.322 0 -1.74842822865e-10)
(-88.322 0 -1.50698971769e-10)
(-88.322 0 7.4343115999e-11)
(-88.322 0 -4.68954229741e-11)
(-88.322 0 3.01495422384e-11)
(-88.322 0 -1.32065547671e-10)
(-88.322 0 -3.66431785887e-10)
(-88.322 0 -2.89140420964e-10)
(-88.322 0 -2.87887477717e-10)
(-88.322 0 -3.09638585723e-10)
(-88.322 0 -3.20894672706e-10)
(-88.322 0 -1.07308989828e-10)
(-88.322 0 2.6934039124e-10)
(-88.3220000001 0 -5.94298065376e-11)
(-88.3219999999 0 4.10051174263e-11)
(-88.322 0 -7.28820817518e-11)
(-88.3220000001 0 -2.35785034816e-10)
(-88.322 0 3.92259180689e-10)
(-88.322 0 -1.30930475068e-10)
(-88.3220000001 0 -1.96055322055e-10)
(-88.322 0 -3.81273020836e-10)
(-88.3219999999 0 6.99450378028e-10)
(-88.322 0 2.55027238136e-10)
(-88.3220000001 0 -7.51760510896e-10)
(-88.3220000001 0 -9.42036747128e-10)
(-88.322 0 -3.92882843939e-10)
(-88.3219999995 0 4.78816464687e-11)
(-88.3219999991 0 5.85263300528e-11)
(-88.322 0 -1.79720341954e-11)
(-88.322 0 1.35125960659e-10)
(-88.3219999999 0 -9.26679762426e-11)
(-88.322 0 9.4708549503e-11)
(-88.322 0 -2.20482857063e-11)
(-88.322 0 -5.05941407835e-11)
(-88.3220000001 0 1.79550168323e-10)
(-88.3219999999 0 4.90984484587e-10)
(-88.3220000002 0 5.53935250963e-10)
(-88.3220000001 0 -2.53562280691e-10)
(-88.322 0 -5.41456090815e-10)
(-88.3220000004 0 4.91873557668e-10)
(-88.3219999991 0 5.23533729746e-10)
(-88.3219999991 0 -3.0845945003e-10)
(-88.3220000001 0 -1.89862983411e-10)
(-88.3220000007 0 -4.62923020224e-10)
(-88.3220000007 0 4.16416637547e-10)
(-88.3219999995 0 4.2744551079e-10)
(-88.3219999994 0 -2.32489610344e-10)
(-88.3219999998 0 -2.2427071963e-10)
(-88.3220000004 0 4.45524643068e-10)
(-88.3219999995 0 4.8193508091e-10)
(-88.3220000003 0 -6.96868948961e-11)
(-88.322 0 -1.13532790076e-10)
(-88.321999999 0 -7.53291099415e-11)
(-88.3220000006 0 5.4852489174e-11)
(-88.3220000006 0 -1.03911203826e-11)
(-88.322 0 7.87264482385e-12)
(-88.322 0 8.97823614687e-11)
(-88.3220000003 0 -1.71250517845e-11)
(-88.322 0 -3.9316400659e-10)
(-88.322 0 3.63997093363e-10)
(-88.3220000001 0 5.13205485244e-10)
(-88.322 0 -2.86023741144e-10)
(-88.3220000003 0 -5.64227461504e-10)
(-88.322 0 7.09585078524e-10)
(-88.3219999997 0 3.53272845251e-10)
(-88.322 0 -3.50884245445e-10)
(-88.322 0 -3.776412296e-10)
(-88.322 0 1.27511153732e-10)
(-88.3220000003 0 -2.37904230283e-10)
(-88.3220000009 0 -5.46294775297e-11)
(-88.3220000003 0 -2.74331924019e-10)
(-88.3219999998 0 4.88467894692e-11)
(-88.322 0 -4.7874670578e-10)
(-88.3219999999 0 -5.6349227421e-10)
(-88.3219999996 0 3.92555246563e-10)
(-88.3219999988 0 1.26527244935e-11)
(-88.3219999999 0 -2.96090013027e-10)
(-88.3220000008 0 1.42233800187e-10)
(-88.3219999996 0 -3.87810918194e-10)
(-88.322 0 3.50311002423e-10)
(-88.322 0 2.77554618701e-11)
(-88.3220000003 0 -3.06214274342e-10)
(-88.3220000011 0 -3.05227619476e-10)
(-88.3220000004 0 -3.20831696617e-10)
(-88.3219999984 0 -1.52437658063e-10)
(-88.3219999981 0 -1.44048723756e-10)
(-88.3220000017 0 -1.34260205541e-10)
(-88.3220000022 0 7.09886247075e-11)
(-88.3219999999 0 3.9546694127e-11)
(-88.3219999999 0 5.29245956574e-11)
(-88.322 0 5.37544309741e-10)
(-88.322 0 1.54570111516e-10)
(-88.322 0 -3.12515514587e-12)
(-88.322 0 1.25873150312e-10)
(-88.322 0 -1.36862218924e-10)
(-88.322 0 2.73890740036e-11)
(-88.322 0 8.23866176782e-12)
(-88.322 0 2.99572384976e-11)
(-88.322 0 1.27776252564e-11)
(-88.322 0 7.4453242059e-11)
(-88.3219999999 0 -1.25844195211e-11)
(-88.3219999998 0 1.29534332497e-10)
(-88.3220000003 0 -4.22587423007e-13)
(-88.3220000001 0 2.70052278636e-10)
(-88.3219999999 0 2.77632117884e-10)
(-88.322 0 -2.21447416541e-10)
(-88.322 0 -1.36206197613e-10)
(-88.322 0 -2.21276615107e-10)
(-88.322 0 3.73667539853e-10)
(-88.322 0 3.70172356211e-10)
(-88.322 0 -4.19414036428e-10)
(-88.3219999999 0 -5.09350783893e-10)
(-88.322 0 2.86056690108e-10)
(-88.322 0 4.18715758652e-10)
(-88.322 0 -1.64576027384e-10)
(-88.322 0 5.05888506684e-10)
(-88.3219999997 0 -1.88014560328e-10)
(-88.3219999998 0 9.71025027493e-12)
(-88.3220000004 0 -1.06896763676e-10)
(-88.3219999998 0 -1.95362132182e-10)
(-88.3219999999 0 4.97437312444e-11)
(-88.3220000012 0 -6.7690645368e-11)
(-88.3219999991 0 2.72337099838e-12)
(-88.3219999985 0 -5.52441541568e-11)
(-88.3220000013 0 3.77095139855e-11)
(-88.3220000018 0 7.63554395879e-11)
(-88.3219999982 0 -5.22902647089e-11)
(-88.3219999982 0 2.98296422515e-10)
(-88.322000002 0 -9.36019447768e-12)
(-88.3220000014 0 2.48557426321e-11)
(-88.321999999 0 -4.16953937407e-11)
(-88.3219999998 0 -9.45489930809e-12)
(-88.3220000003 0 -4.43431925276e-11)
(-88.3220000001 0 1.34138018385e-10)
(-88.3219999998 0 3.95398490358e-10)
(-88.3220000004 0 2.88015337675e-10)
(-88.3220000012 0 2.97706171633e-10)
(-88.3219999983 0 2.200632023e-10)
(-88.321999999 0 4.31523738108e-10)
(-88.3220000013 0 1.93428731058e-10)
(-88.3219999998 0 -3.07054978923e-10)
(-88.3220000003 0 1.01933659914e-10)
(-88.3219999994 0 -1.42829673622e-10)
(-88.3219999992 0 2.46176464207e-10)
(-88.3220000013 0 4.81555566697e-10)
(-88.3220000006 0 -4.79521681991e-10)
(-88.322 0 -1.05685924741e-10)
(-88.3219999998 0 3.91794906734e-10)
(-88.3219999997 0 9.01961455512e-11)
(-88.3219999998 0 -3.89459164795e-10)
(-88.3219999996 0 -8.51370513869e-10)
(-88.3219999998 0 7.81306929585e-10)
(-88.3220000001 0 7.97730424006e-10)
(-88.322 0 5.9878290834e-10)
(-88.3220000004 0 -2.76420036363e-10)
(-88.3220000001 0 -8.14036626278e-11)
(-88.322 0 1.48746293966e-10)
(-88.3220000003 0 -2.01373976573e-11)
(-88.322 0 -3.88320519123e-11)
(-88.3219999997 0 -7.97853754981e-12)
(-88.322 0 1.1444268798e-11)
(-88.322 0 2.18545973576e-11)
(-88.322 0 1.87630867261e-11)
(-88.322 0 -2.65425699717e-12)
(-88.322 0 4.45117440555e-11)
(-88.3220000001 0 -1.80267694079e-10)
(-88.3219999998 0 -1.95207798597e-10)
(-88.3219999999 0 8.29205447045e-12)
(-88.3220000001 0 -1.75161746862e-11)
(-88.322 0 2.36112412118e-11)
(-88.3220000001 0 1.0021515982e-10)
(-88.3219999997 0 1.08412689465e-10)
(-88.3219999996 0 -1.18368626867e-11)
(-88.3220000011 0 7.24116038313e-12)
(-88.3220000011 0 1.8772603024e-11)
(-88.3219999984 0 8.69138330297e-12)
(-88.3219999986 0 4.88932018283e-11)
(-88.3220000004 0 -1.1798940256e-10)
(-88.3220000001 0 8.62939502202e-11)
(-88.3220000001 0 3.53808108237e-12)
(-88.3219999999 0 2.03903250097e-10)
(-88.3220000004 0 2.47079712322e-10)
(-88.3220000009 0 2.97670857121e-10)
(-88.3219999996 0 -1.1127271021e-11)
(-88.3219999997 0 1.5791445739e-10)
(-88.3220000003 0 3.24003360945e-10)
(-88.322 0 -2.4466670625e-11)
(-88.322 0 -4.56766356099e-10)
(-88.3219999999 0 -6.64104411053e-10)
(-88.3220000001 0 9.05920189335e-11)
(-88.3219999998 0 7.13319303175e-10)
(-88.3219999999 0 -9.11488392075e-10)
(-88.3220000002 0 -2.72967537005e-10)
(-88.322 0 2.02269976175e-10)
(-88.322 0 3.30798117707e-10)
(-88.322 0 -1.10981875172e-10)
(-88.322 0 2.11172935286e-10)
(-88.322 0 5.71224141057e-11)
(-88.322 0 2.50785672436e-10)
(-88.322 0 -3.84393420044e-11)
(-88.3220000001 0 4.76126103364e-10)
(-88.3219999998 0 4.97460237844e-10)
(-88.3219999997 0 -3.46133206222e-10)
(-88.3220000003 0 -8.47990525937e-11)
(-88.322 0 2.27361651953e-10)
(-88.3220000005 0 -2.16014074707e-11)
(-88.3219999994 0 3.11729185908e-10)
(-88.3219999988 0 -3.33119158242e-10)
(-88.3220000014 0 -4.51812625422e-11)
(-88.3220000014 0 -2.07402836162e-10)
(-88.3219999993 0 8.64545993677e-11)
(-88.322 0 1.23456369525e-10)
(-88.3219999998 0 -3.02495411263e-10)
(-88.322 0 6.58695705173e-10)
(-88.3219999993 0 5.23567671318e-10)
(-88.3219999989 0 3.39950064705e-10)
(-88.3220000002 0 1.454173872e-10)
(-88.3220000003 0 2.0247869449e-11)
(-88.3220000002 0 -7.3341166403e-11)
(-88.3219999992 0 -1.64923047113e-10)
(-88.322 0 3.14784086715e-10)
(-88.3220000003 0 5.24667294384e-10)
(-88.322 0 -5.33039607843e-11)
(-88.3219999999 0 4.10301155699e-10)
(-88.322 0 3.33661638975e-10)
(-88.322 0 -3.52992935206e-10)
(-88.322 0 -2.54725517345e-13)
(-88.3219999999 0 8.01582383239e-11)
(-88.3220000002 0 -2.41035915152e-11)
(-88.3220000002 0 1.22857390203e-10)
(-88.3219999999 0 1.40075809633e-10)
(-88.3219999999 0 -3.79830638758e-10)
(-88.3219999999 0 4.51781717756e-10)
(-88.3219999998 0 3.69889704051e-10)
(-88.3219999998 0 4.23646451202e-10)
(-88.3220000002 0 1.08678186601e-10)
(-88.3220000002 0 -5.19620627488e-10)
(-88.322 0 -2.18124412447e-10)
(-88.3219999999 0 7.76839515935e-10)
(-88.3219999999 0 9.56328921282e-10)
(-88.3220000003 0 -5.34346027068e-10)
(-88.3219999999 0 -5.45776574745e-10)
(-88.3219999998 0 -3.6935589963e-10)
(-88.3219999998 0 -1.05392854762e-11)
(-88.3219999993 0 1.06304766013e-10)
(-88.3219999996 0 -3.36047417812e-10)
(-88.322000001 0 4.28507334483e-10)
(-88.3220000001 0 5.32367644204e-10)
(-88.3219999993 0 -5.14265564415e-11)
(-88.3220000017 0 -3.34158620729e-10)
(-88.3220000006 0 7.83865818946e-11)
(-88.3219999996 0 1.06976389499e-10)
(-88.3220000002 0 9.41561496521e-11)
(-88.3219999991 0 -7.99083538062e-11)
(-88.3220000002 0 -6.39221769106e-12)
(-88.3220000001 0 -4.40985530533e-11)
(-88.3219999999 0 8.14100894106e-12)
(-88.3220000002 0 3.23167455397e-11)
(-88.3219999997 0 3.02624466415e-11)
(-88.322 0 -1.27047722962e-11)
(-88.322 0 7.77683625908e-12)
(-88.322 0 6.5348682527e-12)
(-88.322 0 5.70196179521e-12)
(-88.322 0 1.0944921308e-11)
(-88.3220000001 0 -4.7130124793e-11)
(-88.3219999999 0 2.20904633387e-10)
(-88.3220000001 0 -1.48255519283e-10)
(-88.3220000001 0 -6.6660915881e-11)
(-88.3219999997 0 -9.2788298719e-12)
(-88.3220000002 0 2.34111667296e-11)
(-88.322 0 2.28660492295e-10)
(-88.3219999999 0 -3.96270089245e-10)
(-88.3220000011 0 -3.93614295675e-10)
(-88.3220000002 0 2.8712911746e-10)
(-88.3219999994 0 2.68550179825e-10)
(-88.3220000006 0 3.15485927212e-11)
(-88.3219999986 0 3.38257443842e-10)
(-88.3219999982 0 -7.17629041456e-11)
(-88.3220000002 0 3.64216337632e-10)
(-88.3220000005 0 -2.70336924199e-10)
(-88.3220000007 0 -7.5156211695e-11)
(-88.3220000008 0 -2.16843308505e-10)
(-88.3220000003 0 3.96854459155e-10)
(-88.3219999993 0 2.13638174999e-11)
(-88.3219999987 0 -1.83004937221e-10)
(-88.3220000011 0 3.27238672261e-11)
(-88.3220000002 0 1.85538556711e-11)
(-88.3219999989 0 3.45191434766e-11)
(-88.3220000016 0 -6.2826890872e-11)
(-88.3220000007 0 4.72604398765e-11)
(-88.3219999992 0 -1.23242393542e-10)
(-88.3220000001 0 -1.56067585651e-10)
(-88.3219999999 0 3.8855395e-10)
(-88.3219999998 0 -3.73507607709e-10)
(-88.3220000009 0 -3.6768405833e-10)
(-88.3219999993 0 -6.18892685349e-11)
(-88.3219999986 0 -1.1517555489e-10)
(-88.322 0 -1.32597581601e-11)
(-88.3220000007 0 -1.63224090644e-10)
(-88.3220000016 0 -8.99454295163e-11)
(-88.3220000001 0 1.77202111325e-11)
(-88.3219999985 0 -2.68212906551e-12)
(-88.3219999988 0 2.14987382513e-12)
(-88.322000001 0 -1.60255984665e-11)
(-88.3220000016 0 -1.87865891167e-12)
(-88.322 0 4.22124063438e-11)
(-88.321999999 0 -6.65595519473e-11)
(-88.3219999992 0 3.89382407552e-11)
(-88.3220000006 0 -2.47269361831e-10)
(-88.3219999997 0 -2.86199061583e-10)
(-88.3219999992 0 -4.82936913958e-10)
(-88.3220000006 0 2.09143916609e-10)
(-88.3220000015 0 -3.80521364e-10)
(-88.3220000001 0 -3.40130933645e-10)
(-88.3219999991 0 7.01701847825e-10)
(-88.3219999999 0 1.79649142619e-10)
(-88.3220000003 0 -1.25313100161e-10)
(-88.3220000003 0 -3.43793918125e-10)
(-88.3219999998 0 -1.40458745329e-10)
(-88.3219999999 0 5.49073436236e-10)
(-88.322 0 -1.06130922018e-10)
(-88.322 0 -1.04404738504e-10)
(-88.322 0 3.03697386542e-11)
(-88.322 0 6.05874691871e-11)
(-88.322 0 -1.27120566984e-10)
(-88.322 0 4.11081625553e-11)
(-88.322 0 2.80899926509e-11)
(-88.3220000001 0 4.86821808042e-12)
(-88.3219999997 0 -4.91757401341e-12)
(-88.322 0 -1.70099427355e-11)
(-88.3220000003 0 2.199148413e-11)
(-88.322 0 -2.09480443428e-11)
(-88.3219999999 0 7.87070521535e-11)
(-88.3220000001 0 -3.20818592005e-11)
(-88.3220000002 0 6.83530955324e-11)
(-88.3219999999 0 -7.44851901347e-11)
(-88.322 0 4.4260501841e-11)
(-88.3220000001 0 3.20103492394e-10)
(-88.3219999999 0 5.96970640977e-11)
(-88.3219999999 0 7.0094169581e-11)
(-88.3220000001 0 4.45910449038e-10)
(-88.3219999999 0 -4.46469930667e-10)
(-88.3219999998 0 -3.63592726214e-10)
(-88.3219999998 0 8.1206654043e-11)
(-88.3220000001 0 2.03456231566e-10)
(-88.3220000003 0 -9.19677803018e-11)
(-88.322 0 7.04077607618e-11)
(-88.3220000003 0 1.58634015787e-10)
(-88.3219999999 0 -3.00832940509e-10)
(-88.3219999999 0 -5.39598044637e-10)
(-88.322 0 2.04368367802e-10)
(-88.3220000001 0 -4.24478160488e-10)
(-88.3219999999 0 -3.46005337796e-10)
(-88.3220000001 0 3.50665744433e-10)
(-88.3220000004 0 -5.15934133179e-12)
(-88.3219999988 0 -1.05508264724e-10)
(-88.3220000007 0 5.13667024233e-11)
(-88.3220000018 0 -1.25245212406e-10)
(-88.3219999993 0 -9.75645025216e-11)
(-88.3219999993 0 2.98342799872e-10)
(-88.3219999997 0 -4.53597561951e-10)
(-88.3219999999 0 -3.38780188336e-10)
(-88.3219999999 0 -4.10828008381e-10)
(-88.3219999999 0 -3.08516621964e-11)
(-88.3220000001 0 3.73376588701e-10)
(-88.322 0 2.87300608139e-11)
(-88.322 0 -3.49226628581e-10)
(-88.3219999999 0 -5.77461856075e-10)
(-88.3220000002 0 1.49786418975e-10)
(-88.322 0 2.08429015445e-10)
(-88.3219999998 0 1.68324010043e-10)
(-88.3220000002 0 -2.6006505314e-10)
(-88.3219999999 0 -2.51508819146e-10)
(-88.3220000001 0 3.42802858579e-11)
(-88.322 0 -4.16453192513e-10)
(-88.322 0 -3.72059481509e-10)
(-88.3220000002 0 -1.0682618866e-10)
(-88.3219999995 0 3.81103236098e-10)
(-88.3219999997 0 -5.68787182161e-11)
(-88.3220000013 0 -6.00696833114e-11)
(-88.3220000013 0 -9.38961854897e-11)
(-88.3219999991 0 -3.89680105314e-11)
(-88.3219999983 0 1.67687477875e-10)
(-88.322 0 -2.81305835404e-11)
(-88.3220000012 0 4.6058759962e-11)
(-88.322 0 -2.39913641255e-11)
(-88.3219999994 0 -1.24876816741e-11)
(-88.3220000003 0 2.93306477497e-11)
(-88.322 0 -3.80020538336e-14)
(-88.3219999997 0 -9.63121734324e-12)
(-88.3220000001 0 -3.05333803991e-11)
(-88.322 0 -2.1471092011e-11)
(-88.3220000001 0 3.50586373513e-11)
(-88.3219999999 0 -1.44061679321e-10)
(-88.3220000001 0 2.90464242965e-11)
(-88.322 0 7.17039802566e-11)
(-88.3219999997 0 -1.09171462987e-10)
(-88.3220000001 0 -9.54736863886e-11)
(-88.322 0 6.30931834879e-11)
(-88.3219999999 0 4.70241261349e-10)
(-88.3220000004 0 4.82566705647e-10)
(-88.3220000002 0 -2.92468239805e-10)
(-88.3219999999 0 -2.87209805052e-10)
(-88.3219999999 0 -1.52739428352e-10)
(-88.3219999997 0 -4.03698856239e-10)
(-88.3219999998 0 1.37163143864e-10)
(-88.3219999992 0 -3.68866130258e-10)
(-88.3219999994 0 3.34574153848e-10)
(-88.3220000011 0 -1.22073900275e-10)
(-88.3220000004 0 1.11362712435e-10)
(-88.3220000002 0 -2.24160793092e-10)
(-88.3220000001 0 -1.58099655641e-11)
(-88.322 0 -3.82577196458e-11)
(-88.322 0 -1.39375140056e-11)
(-88.322 0 -6.02121008938e-11)
(-88.322 0 6.00231668833e-11)
(-88.322 0 2.88920627652e-11)
(-88.322 0 -7.29994048562e-11)
(-88.3220000001 0 1.1816692887e-10)
(-88.322 0 1.43761935179e-10)
(-88.322 0 -4.32409456984e-10)
(-88.322 0 5.0384750181e-10)
(-88.322 0 5.23994258626e-10)
(-88.322 0 9.50292581046e-11)
(-88.322 0 1.14909605815e-10)
(-88.322 0 -8.88559623129e-12)
(-88.322 0 6.00636310269e-11)
(-88.322 0 -1.06285431467e-11)
(-88.322 0 7.49893551945e-12)
(-88.322 0 1.95768704448e-12)
(-88.322 0 -1.88352444184e-11)
(-88.322 0 1.75851914872e-11)
(-88.322 0 1.95244124819e-12)
(-88.322 0 9.32325273336e-11)
(-88.322 0 -3.61175045784e-11)
(-88.322 0 -3.9212426342e-11)
(-88.322 0 4.23260168358e-11)
(-88.322 0 -2.34915695903e-11)
(-88.322 0 2.03547668947e-11)
(-88.322 0 -1.28766484264e-10)
(-88.322 0 3.79032581325e-11)
(-88.322 0 -4.36613305645e-11)
(-88.322 0 -7.7342309273e-11)
(-88.322 0 2.13941295081e-10)
(-88.3220000002 0 -7.52166032775e-11)
(-88.3219999999 0 1.19848805683e-10)
(-88.3219999998 0 -1.40202034124e-10)
(-88.3220000001 0 -6.81457206707e-10)
(-88.322 0 1.287869599e-10)
(-88.322 0 2.64088626506e-10)
(-88.322 0 -5.84910642813e-12)
(-88.322 0 -6.00869010029e-11)
(-88.322 0 1.35001300496e-10)
(-88.322 0 -6.28400345323e-11)
(-88.322 0 -2.32014436518e-11)
(-88.322 0 -1.74720494942e-11)
(-88.322 0 -4.23848782458e-11)
(-88.322 0 9.55764418932e-11)
(-88.3219999999 0 -7.23263782255e-12)
(-88.3220000002 0 1.43774492815e-10)
(-88.3220000002 0 -3.67340563307e-11)
(-88.3219999997 0 -4.87314873373e-11)
(-88.3219999991 0 -1.16729222185e-10)
(-88.3219999991 0 7.1795840407e-11)
(-88.3220000016 0 1.03168589426e-10)
(-88.3220000017 0 -2.40939627079e-10)
(-88.3219999995 0 -9.64030270486e-11)
(-88.3220000001 0 -8.23013595154e-11)
(-88.3219999995 0 -7.97381400901e-11)
(-88.3219999998 0 3.11313012471e-11)
(-88.3219999994 0 6.1323966001e-11)
(-88.3219999993 0 -9.24089511953e-10)
(-88.3220000005 0 -7.04824254173e-10)
(-88.322 0 -2.17297805516e-10)
(-88.3219999997 0 8.32001299105e-11)
(-88.322 0 1.13784430594e-10)
(-88.3219999999 0 -1.22568391428e-10)
(-88.322 0 -3.95584886532e-11)
(-88.3219999998 0 4.49412901801e-11)
(-88.3219999999 0 4.47202703389e-11)
(-88.3220000002 0 -8.91708597951e-11)
(-88.322 0 -1.01144148377e-10)
(-88.322 0 -3.26369899707e-11)
(-88.322 0 -4.36175571937e-11)
(-88.322 0 -8.08172485634e-12)
(-88.3219999999 0 -1.41251399075e-11)
(-88.3220000001 0 -5.16474276125e-12)
(-88.3220000001 0 -1.85522662184e-11)
(-88.3219999999 0 -2.46409433172e-11)
(-88.322 0 -3.0328327068e-11)
(-88.322 0 -2.34228706421e-11)
(-88.322 0 -9.6826575746e-12)
(-88.322 0 3.6976596075e-11)
(-88.322 0 -1.53054523057e-10)
(-88.3219999999 0 -5.95007678119e-11)
(-88.3219999999 0 3.90009653577e-10)
(-88.322 0 2.8907555987e-10)
(-88.3220000001 0 -4.186526178e-10)
(-88.3220000001 0 -3.31312947025e-10)
(-88.322 0 -1.20060035787e-10)
(-88.3219999999 0 4.82533708788e-11)
(-88.3220000001 0 -1.30620108824e-10)
(-88.3220000002 0 9.18294842118e-11)
(-88.322 0 -1.35683764761e-10)
(-88.3220000001 0 -3.86730633251e-10)
(-88.3219999998 0 -2.82739359755e-10)
(-88.3219999992 0 1.5125041298e-10)
(-88.3220000012 0 -3.7296233339e-10)
(-88.3220000014 0 -4.20769603541e-10)
(-88.3219999993 0 -3.92151704533e-10)
(-88.3219999999 0 4.09831201041e-10)
(-88.3219999995 0 3.22743736576e-10)
(-88.3219999992 0 -3.50266454086e-10)
(-88.3220000002 0 -2.41838723629e-10)
(-88.322 0 4.52930982427e-10)
(-88.322 0 9.23589244121e-11)
(-88.322 0 -2.92574109101e-10)
(-88.322 0 -4.8235208276e-10)
(-88.322 0 2.42833520723e-10)
(-88.3220000001 0 -2.28238092121e-10)
(-88.3219999999 0 -4.53310525621e-11)
(-88.3219999998 0 -4.77986413752e-10)
(-88.322 0 4.19515432637e-10)
(-88.3220000001 0 -8.4359826634e-11)
(-88.322 0 5.09817546943e-11)
(-88.3220000004 0 1.86044800142e-10)
(-88.3219999998 0 -3.31203236958e-10)
(-88.3219999995 0 -7.87932544562e-10)
(-88.322000001 0 -9.10114503066e-10)
(-88.3220000006 0 -3.18656900037e-10)
(-88.3219999996 0 8.4851118858e-10)
(-88.3219999998 0 5.09060033916e-10)
(-88.3219999994 0 -6.94917173059e-11)
(-88.3219999995 0 -5.65984080705e-10)
(-88.3220000011 0 6.02947707196e-10)
(-88.3220000009 0 -1.98386870555e-11)
(-88.3219999996 0 -1.52638426495e-10)
(-88.3219999996 0 -1.09585905602e-11)
(-88.322 0 1.01011991141e-10)
(-88.3220000005 0 5.84397764843e-11)
(-88.3220000003 0 1.61599167277e-10)
(-88.3219999997 0 -1.86476781633e-10)
(-88.3219999999 0 1.29294127438e-10)
(-88.3220000003 0 -2.15669471621e-10)
(-88.3220000002 0 1.53164782826e-10)
(-88.3219999999 0 1.84381982176e-10)
(-88.322 0 -1.69470054406e-10)
(-88.3219999999 0 -3.67298347585e-10)
(-88.322 0 -1.44389772121e-10)
(-88.322 0 -4.09732216111e-10)
(-88.322 0 -4.15694667401e-10)
(-88.322 0 -1.84297728572e-10)
(-88.322 0 7.45553526365e-11)
(-88.322 0 3.14271746024e-11)
(-88.322 0 7.81250981921e-11)
(-88.3219999999 0 -2.79413404373e-10)
(-88.3220000003 0 -5.93317193495e-10)
(-88.3220000002 0 2.75974849454e-10)
(-88.3219999989 0 2.93418000774e-10)
(-88.3219999993 0 6.67780382996e-10)
(-88.3220000017 0 -3.86441445063e-10)
(-88.3220000012 0 -3.29419378384e-10)
(-88.3219999994 0 2.5927338664e-10)
(-88.3219999993 0 2.40795789038e-10)
(-88.322 0 2.45131406738e-10)
(-88.322 0 1.00218225341e-10)
(-88.3220000001 0 2.33109862664e-10)
(-88.3220000009 0 9.54028691738e-11)
(-88.3220000002 0 1.03008254086e-11)
(-88.3219999989 0 7.70769699332e-11)
(-88.3220000002 0 -1.05003579507e-10)
(-88.3220000011 0 -3.63009342103e-10)
(-88.3220000003 0 4.53856090976e-10)
(-88.3219999982 0 6.44498332674e-10)
(-88.3219999983 0 3.91761982047e-10)
(-88.3220000015 0 6.43739714217e-10)
(-88.3220000011 0 -3.78368570972e-10)
(-88.3219999985 0 -1.32284380744e-11)
(-88.3219999993 0 9.2522352373e-12)
(-88.3220000015 0 -4.27095399665e-11)
(-88.3220000011 0 4.66254054196e-11)
(-88.3219999989 0 -6.30174817075e-11)
(-88.3219999995 0 2.69906304168e-11)
(-88.3220000005 0 -9.08079806979e-11)
(-88.3220000005 0 -2.31945835806e-10)
(-88.321999999 0 1.94827292341e-10)
(-88.3219999991 0 2.59608236779e-10)
(-88.322000001 0 3.41076244673e-10)
(-88.3219999996 0 -3.09082652699e-10)
(-88.3220000004 0 -3.22755670174e-10)
(-88.3220000009 0 5.18318307795e-10)
(-88.3220000002 0 4.96973212377e-11)
(-88.3220000007 0 9.51239607708e-11)
(-88.3219999983 0 3.25615405247e-10)
(-88.3219999979 0 4.87701037279e-10)
(-88.3220000019 0 5.35918302307e-10)
(-88.3220000015 0 -1.86843876436e-10)
(-88.3219999984 0 -2.70645392171e-10)
(-88.3219999983 0 -1.82793435088e-10)
(-88.3220000008 0 3.94171428976e-10)
(-88.3220000005 0 3.26348777449e-10)
(-88.3219999995 0 2.53135116731e-10)
(-88.322 0 -1.43133654562e-10)
(-88.3219999999 0 -1.84149827321e-10)
(-88.3220000003 0 9.87605700458e-11)
(-88.322 0 -2.23012030941e-11)
(-88.3219999999 0 -3.7690782776e-11)
(-88.3219999999 0 -7.67011651332e-11)
(-88.3219999994 0 7.78690432065e-11)
(-88.3220000006 0 6.53808943508e-11)
(-88.3220000011 0 2.58224896303e-11)
(-88.3219999999 0 -2.42754318515e-11)
(-88.322 0 -2.05124827153e-10)
(-88.3220000004 0 -3.31507306082e-11)
(-88.3219999997 0 -6.32169666845e-11)
(-88.3219999991 0 -7.41646807323e-11)
(-88.3219999995 0 5.16839346849e-11)
(-88.322 0 -6.92726457016e-11)
(-88.3220000006 0 -1.26085437855e-11)
(-88.3220000014 0 6.92604121282e-12)
(-88.321999999 0 -6.15887626004e-11)
(-88.3219999982 0 1.6929046751e-10)
(-88.3219999991 0 1.41312907094e-11)
(-88.3220000013 0 -2.89302722514e-10)
(-88.322000002 0 -2.03664900687e-10)
(-88.3219999989 0 3.03289663024e-10)
(-88.3219999989 0 4.03195507171e-10)
(-88.322 0 1.26312778339e-10)
(-88.3220000001 0 -3.7774876325e-11)
(-88.3220000001 0 1.34945196258e-10)
(-88.3220000002 0 -6.69149621265e-11)
(-88.3220000004 0 1.45292553808e-10)
(-88.3220000001 0 3.86318027802e-10)
(-88.322 0 2.84021091461e-10)
(-88.3219999999 0 -1.58236931778e-10)
(-88.3220000002 0 4.43010136531e-10)
(-88.3219999996 0 2.92849529026e-10)
(-88.3219999993 0 5.38806562844e-10)
(-88.322 0 -4.52727920992e-10)
(-88.322000001 0 -3.15239573233e-10)
(-88.3220000005 0 4.72700642801e-10)
(-88.3219999995 0 2.28539608731e-10)
(-88.322 0 -4.49225164114e-10)
(-88.322 0 -8.58078315465e-11)
(-88.3220000001 0 2.81710461596e-10)
(-88.322 0 4.9556201931e-10)
(-88.322 0 -3.42036737459e-10)
(-88.3220000006 0 2.07393895538e-10)
(-88.3219999994 0 1.7409567308e-11)
(-88.3219999988 0 4.77071799148e-10)
(-88.3219999997 0 -4.37402557479e-10)
(-88.3220000013 0 2.20521268524e-11)
(-88.3220000014 0 1.01086652003e-10)
(-88.3219999987 0 -4.08264423773e-10)
(-88.3219999991 0 9.91088992939e-11)
(-88.3220000003 0 6.49546577072e-10)
(-88.3220000004 0 6.04534375395e-10)
(-88.3219999999 0 3.41357175083e-10)
(-88.3219999993 0 -3.92467731626e-10)
(-88.3220000011 0 -5.2577455627e-10)
(-88.3220000009 0 4.46849265912e-10)
(-88.3219999996 0 3.89224596216e-10)
(-88.3219999998 0 -2.98528198639e-10)
(-88.322 0 -4.40011553652e-10)
(-88.3219999999 0 1.07374753952e-10)
(-88.322 0 -1.49362754651e-10)
(-88.322 0 -2.26322384024e-11)
(-88.322 0 8.24360794682e-11)
(-88.322 0 -1.356180522e-10)
(-88.322 0 1.69629469874e-10)
(-88.322 0 -6.4829351423e-11)
(-88.322 0 1.4145062689e-10)
(-88.322 0 -1.6967395338e-10)
(-88.322 0 -9.85297887892e-11)
(-88.3220000001 0 -1.5209805161e-10)
(-88.3220000003 0 7.93497307001e-12)
(-88.322 0 2.78015490745e-10)
(-88.3219999997 0 1.5152014665e-10)
(-88.3220000001 0 -1.03890966908e-10)
(-88.3219999998 0 -2.25212352766e-10)
(-88.322 0 8.89900246354e-11)
(-88.3220000001 0 1.18979802972e-10)
(-88.3219999998 0 -1.54423011202e-10)
(-88.322 0 3.00463668631e-10)
(-88.322 0 5.88753017439e-10)
(-88.3220000001 0 -2.62138143092e-10)
(-88.3219999998 0 -3.03455555051e-10)
(-88.3219999998 0 -6.85556664398e-10)
(-88.3220000004 0 3.20325324653e-10)
(-88.322 0 3.05030252201e-10)
(-88.3219999998 0 -2.7197106963e-10)
(-88.3220000001 0 -2.4129036403e-10)
(-88.322 0 -2.65097904915e-10)
(-88.322 0 -1.68434383761e-10)
(-88.322 0 -1.77700585049e-10)
(-88.322 0 -8.89807897756e-11)
(-88.322 0 7.80197254351e-11)
(-88.322 0 1.03906946686e-10)
(-88.3219999998 0 -1.32233193911e-10)
(-88.3220000002 0 2.6477876977e-10)
(-88.3220000002 0 -2.78420998983e-10)
(-88.3219999997 0 -5.20891920953e-10)
(-88.322 0 -4.31766939058e-10)
(-88.3219999998 0 -6.9788349255e-11)
(-88.3220000001 0 -1.10050378795e-10)
(-88.3220000004 0 -4.00443430612e-10)
(-88.3219999999 0 2.23539618787e-10)
(-88.322 0 2.91069981226e-10)
(-88.322 0 -3.35731491494e-10)
(-88.3220000002 0 2.67417772744e-11)
(-88.3220000001 0 -4.50911705782e-10)
(-88.3219999998 0 -4.04154823582e-10)
(-88.322 0 6.14313397824e-11)
(-88.3219999999 0 -6.24736754495e-10)
(-88.322 0 -3.65063268667e-10)
(-88.3219999999 0 -3.84843701036e-10)
(-88.3220000005 0 2.08387405224e-10)
(-88.3220000005 0 2.88479721626e-10)
(-88.3219999989 0 -4.45762819816e-10)
(-88.3219999992 0 -6.60405587387e-11)
(-88.3220000013 0 -3.98794077264e-10)
(-88.3220000003 0 2.51631002538e-10)
(-88.3219999997 0 -4.04192969601e-10)
(-88.3220000003 0 -7.58879800846e-10)
(-88.3219999998 0 -2.11286398426e-10)
(-88.3219999999 0 5.33440913612e-11)
(-88.322 0 2.34796109155e-10)
(-88.322 0 3.34898568006e-11)