/*--------------------------------*- C++ -*----------------------------------*\
  =========                 |
  \\      /  F ield         | OpenFOAM: The Open Source CFD Toolbox
   \\    /   O peration     | Website:  https://openfoam.org
    \\  /    A nd           | Version:  6
     \\/     M anipulation  |
\*---------------------------------------------------------------------------*/
FoamFile
{
    version     2.0;
    format      ascii;
    class       volScalarField;
    location    "4.75e-05";
    object      p;
}
// * * * * * * * * * * * * * * * * * * * * * * * * * * * * * * * * * * * * * //

dimensions      [1 -1 -2 0 0 0 0];

internalField   nonuniform List<scalar> 
8192
(
6000000.0006
5999999.99939
6000000.00047
6000000.00087
6000000.00452
5999999.99776
6000000.0015
5999999.99962
6000000.00021
5999999.99984
6000000.00021
5999999.99981
6000000.00063
6000000.00143
6000000.00071
6000000.00055
6000000.00055
5999999.99832
5999999.99902
6000000.00062
5999999.99856
5999999.99722
6000000.00178
5999999.99982
5999999.99957
6000000.00016
5999999.99826
5999999.99924
5999999.99823
5999999.99912
6000000.00023
6000000.0005
5999999.99658
5999999.99376
6000000.00771
6000000.00759
5999999.99905
6000000.00448
5999999.99945
5999999.99726
6000000.00343
5999999.99778
6000000.00021
5999999.99988
6000000.00035
6000000.00035
6000000.00006
5999999.9999
5999999.99921
6000000.00156
5999999.99711
6000000.00053
6000000.003
5999999.99605
5999999.99666
6000000.00121
5999999.99987
6000000.00292
5999999.99997
6000000.00559
5999999.99668
5999999.99747
5999999.99709
6000000.00231
6000000.00063
6000000.00207
5999999.99982
6000000.00381
5999999.99577
6000000.00312
5999999.99869
5999999.99685
6000000.00263
6000000.00277
6000000.00683
5999999.99673
5999999.9944
6000000.00645
6000000.0025
5999999.99537
5999999.99439
5999999.9919
6000000.00316
6000000.00585
6000000.00007
5999999.99914
6000000.00639
6000000.00476
5999999.99767
5999999.99716
5999999.99857
5999999.99833
5999999.99712
6000000.0042
5999999.99692
6000000.00213
6000000.00161
5999999.99944
6000000.0038
5999999.99826
5999999.99968
5999999.99988
5999999.99971
6000000.00018
5999999.99906
6000000.00029
6000000.00012
6000000
5999999.99998
5999999.99998
6000000.00006
6000000.00022
5999999.99941
6000000.00064
5999999.99975
6000000.00119
6000000.00011
5999999.99873
6000000.00081
5999999.99914
5999999.99928
5999999.99889
6000000.00009
5999999.99904
6000000.00019
5999999.99953
6000000.00032
6000000.00033
6000000.00593
6000000.00051
5999999.99717
6000000.00056
5999999.99876
5999999.99951
5999999.99997
5999999.99975
6000000.00063
6000000.0009
5999999.99852
6000000.00369
6000000.00077
6000000.00323
6000000.00438
5999999.99665
5999999.99673
5999999.99812
6000000.00213
6000000.00232
5999999.9999
5999999.99986
5999999.99886
6000000.00071
5999999.99484
6000000.0007
5999999.99687
5999999.99664
6000000.0016
6000000.00092
5999999.99846
5999999.99912
5999999.99977
5999999.9996
6000000.00019
6000000.00053
5999999.99963
6000000.00225
6000000.00019
6000000.00118
5999999.99796
6000000.0006
5999999.99749
6000000.00303
6000000.00204
6000000.00278
6000000.00195
6000000.00406
6000000.00234
6000000.00055
5999999.99432
6000000.00283
6000000.00156
5999999.998
6000000.00077
5999999.99799
6000000.00275
6000000.00104
6000000.00211
5999999.9934
5999999.99236
6000000.00185
6000000.00634
6000000.0042
5999999.99927
5999999.99947
6000000.00098
6000000.00026
5999999.9999
6000000.00001
5999999.99997
6000000.00001
6000000.00015
6000000.00004
6000000.00002
5999999.9976
5999999.99758
6000000.00287
5999999.99924
5999999.99996
6000000.00005
5999999.99998
6000000.0001
6000000.00027
6000000.00033
5999999.99942
5999999.99994
6000000.00003
5999999.99981
6000000.00004
6000000.00001
5999999.99582
6000000.00078
6000000.00165
5999999.99692
6000000.00093
6000000.00696
5999999.99407
5999999.99683
6000000.00532
6000000.00862
5999999.99177
5999999.99516
6000000.00153
6000000.00394
5999999.99568
6000000.00314
6000000.00027
6000000.00473
5999999.99825
6000000.00716
6000000.00364
5999999.99148
6000000.00042
6000000.00632
5999999.99822
6000000.00541
5999999.99397
5999999.99854
6000000.00161
6000000.00306
6000000.00382
6000000.00056
6000000.00227
6000000.00081
5999999.9989
5999999.99936
5999999.99918
5999999.9999
5999999.99882
6000000.00059
5999999.99805
6000000.00222
5999999.99843
5999999.99969
5999999.99921
5999999.99972
5999999.99992
5999999.99983
6000000.00127
6000000.00167
5999999.99669
6000000.00037
6000000.00136
5999999.99997
6000000.00275
5999999.99508
5999999.99717
6000000.00516
6000000.00104
5999999.99626
5999999.99499
5999999.99946
5999999.99443
5999999.99827
5999999.99468
6000000.00163
6000000.00521
5999999.99617
6000000.00058
5999999.99911
6000000.00137
5999999.99953
5999999.99928
6000000.00167
5999999.99766
6000000.00185
6000000.00011
6000000
6000000.00016
6000000.00001
6000000.00001
6000000.00002
6000000.00027
5999999.99888
6000000.00145
5999999.99694
5999999.9999
5999999.9985
6000000.00166
6000000.00574
5999999.99846
5999999.99359
6000000.00271
6000000.00656
5999999.9978
6000000.00351
5999999.99827
6000000.00671
5999999.99634
5999999.99681
5999999.99638
6000000.00199
6000000.00219
5999999.99544
6000000.00183
6000000.00098
6000000.00012
6000000.00091
5999999.99869
6000000.00034
6000000.00063
5999999.99817
6000000.00259
6000000.00226
6000000.00097
6000000.0002
5999999.99965
5999999.99712
5999999.99754
6000000.00052
6000000.00091
5999999.99977
5999999.99847
5999999.9978
6000000.00084
5999999.99653
6000000.00078
5999999.99658
5999999.99403
5999999.99667
6000000.00345
5999999.99752
5999999.99626
6000000.0073
5999999.99874
6000000.00294
6000000.00002
5999999.99674
6000000.00392
5999999.99567
6000000.00358
5999999.99977
5999999.9995
6000000.00091
5999999.99978
6000000.0006
6000000.00009
6000000.00067
6000000.00163
5999999.99816
6000000.00299
6000000.00113
5999999.99751
6000000.00189
5999999.99991
5999999.99989
6000000.00393
5999999.99812
6000000.00366
6000000.003
5999999.99377
5999999.99257
5999999.99558
5999999.99878
6000000.00105
6000000.00202
6000000.0028
5999999.99441
5999999.99163
6000000.00157
5999999.99606
5999999.99868
6000000.00525
5999999.99834
5999999.99883
6000000.00205
5999999.99669
5999999.99799
6000000.00652
5999999.99601
5999999.99915
5999999.99393
6000000.00175
6000000.00516
5999999.99977
5999999.99803
5999999.99129
6000000.00394
5999999.99926
6000000.00438
5999999.99862
5999999.99685
6000000.00291
5999999.99472
5999999.9934
6000000.00029
6000000.00287
5999999.99816
5999999.99798
5999999.99762
6000000.0018
6000000.00196
5999999.99774
6000000.00189
5999999.99856
5999999.99931
6000000.00103
5999999.99924
5999999.99977
6000000.00002
6000000.0004
6000000.00118
5999999.99693
6000000.00132
6000000.00034
5999999.99953
5999999.99726
6000000.00156
6000000.00052
5999999.99883
6000000.00134
6000000.00123
5999999.99788
5999999.99936
6000000.00032
5999999.9995
5999999.99695
5999999.99699
5999999.99876
5999999.99576
6000000.00243
6000000.00203
6000000.00039
6000000.00045
5999999.99924
6000000.00282
5999999.99805
6000000.00296
6000000.00208
5999999.9954
6000000.00458
6000000.00138
6000000.00049
6000000.00078
5999999.99835
6000000.00211
5999999.99994
5999999.9992
6000000.00106
6000000.00017
5999999.99953
5999999.99753
6000000.00391
5999999.99697
5999999.99956
6000000.00163
5999999.99707
6000000.00344
5999999.99642
6000000.00239
5999999.999
5999999.99943
5999999.99738
6000000.00262
6000000.00637
5999999.99809
5999999.99795
6000000.00087
6000000.0026
5999999.99838
5999999.99752
6000000.00547
5999999.99829
5999999.99982
5999999.99971
6000000.0007
6000000.00307
5999999.99753
6000000.0042
5999999.99843
5999999.99859
6000000.00172
6000000.00019
5999999.9999
6000000.00317
6000000.00064
6000000.00268
5999999.99892
5999999.99899
5999999.99945
5999999.99726
5999999.99487
6000000.00256
6000000.00107
5999999.99863
5999999.9996
5999999.99891
6000000.00007
5999999.99843
6000000.00074
5999999.99925
6000000.00022
5999999.99971
5999999.99997
6000000.00009
5999999.99876
6000000.0007
6000000.00011
5999999.99988
5999999.99989
5999999.99981
6000000.00011
6000000.00015
5999999.99983
5999999.99989
5999999.99982
6000000.00002
5999999.99981
5999999.99992
5999999.99975
5999999.99959
6000000.00001
6000000
5999999.99981
5999999.99998
6000000.00003
5999999.99994
5999999.99866
6000000.00263
5999999.99826
5999999.99929
5999999.99919
5999999.9994
6000000.00001
5999999.99997
6000000.00001
5999999.99991
6000000.00115
6000000.00045
6000000.00005
6000000.00011
5999999.99947
5999999.99763
6000000.0027
6000000.00283
5999999.99873
5999999.99378
5999999.99283
6000000.00167
6000000.00568
6000000.00207
6000000.00414
5999999.9967
6000000.00454
5999999.99364
6000000.00093
5999999.99638
6000000.00042
6000000.00002
6000000.00274
5999999.99902
6000000.00174
5999999.99757
6000000.00159
5999999.99981
6000000.00002
6000000.00026
6000000.00028
6000000.00001
5999999.99966
6000000.00257
5999999.99974
6000000.00001
6000000.00002
5999999.99992
5999999.99989
6000000.00003
6000000.0004
5999999.99914
5999999.99904
5999999.99909
5999999.99907
5999999.99979
5999999.99862
5999999.99713
6000000.00159
6000000.00076
6000000.00079
6000000.00207
5999999.99759
5999999.99723
6000000.00763
6000000.0035
6000000.0012
6000000.00329
5999999.99733
5999999.99902
6000000.00077
5999999.99952
6000000.00065
6000000.00008
6000000.00055
6000000.00034
6000000.0022
5999999.99939
5999999.99828
6000000.00034
5999999.99962
5999999.99997
6000000.00519
5999999.99962
5999999.9977
6000000.00312
6000000.00169
6000000.0006
6000000.00094
5999999.99689
5999999.99799
6000000.00477
6000000.00502
6000000.00273
5999999.99726
5999999.99771
6000000.00269
5999999.99979
5999999.99824
5999999.99724
6000000.0036
6000000.00258
5999999.99994
6000000.00159
5999999.99825
6000000.00118
5999999.99955
6000000.00067
6000000.0007
6000000.00051
6000000.00095
5999999.99942
5999999.99903
6000000.00151
6000000.00126
5999999.99364
5999999.99481
6000000.00358
6000000.00118
5999999.99947
5999999.99847
6000000.00284
5999999.99732
6000000.00085
6000000.0015
6000000.00268
5999999.99311
6000000.00285
6000000.00171
6000000.0051
5999999.99535
5999999.99761
6000000.00144
6000000.00079
5999999.99461
5999999.99822
6000000.00417
6000000.0058
5999999.99904
6000000.00179
6000000.00128
6000000.0044
5999999.99719
6000000.00129
6000000.00171
5999999.99585
6000000.0033
6000000.00283
6000000.00564
6000000.0088
5999999.9952
5999999.99786
6000000.00399
6000000.0069
5999999.9944
5999999.99445
6000000.00245
5999999.99775
6000000
6000000.00066
5999999.99653
6000000.00218
5999999.99731
6000000.00086
5999999.99651
5999999.99467
6000000.00344
6000000.00335
5999999.99872
6000000.00339
6000000.00146
6000000.00034
5999999.99964
5999999.99911
5999999.9977
6000000.00389
6000000.00765
5999999.99644
5999999.9987
5999999.99216
6000000.00507
6000000.00653
5999999.99567
5999999.99718
5999999.99592
5999999.9975
5999999.99635
6000000.00064
5999999.99926
6000000.00125
5999999.99922
5999999.99961
6000000.00308
5999999.9947
5999999.99469
5999999.99642
6000000.00634
6000000.00016
5999999.999
6000000.00098
5999999.99964
6000000.00237
5999999.99925
6000000.00157
6000000.00613
5999999.99617
5999999.99472
5999999.99317
6000000.00271
6000000.00255
5999999.99217
5999999.99712
5999999.99671
6000000.00139
5999999.99858
5999999.99368
6000000.00424
6000000.00416
5999999.99998
6000000.0009
5999999.99999
6000000.00039
6000000.00051
6000000.00027
6000000.00001
5999999.99998
5999999.99991
5999999.99988
6000000.00015
6000000.0002
5999999.99879
6000000.00185
6000000.00583
6000000.00008
6000000.00071
6000000.00252
5999999.99924
6000000.003
6000000.00094
5999999.99977
5999999.9999
5999999.99982
6000000.00155
5999999.99762
5999999.99724
6000000.00116
5999999.99666
6000000.00094
5999999.99892
5999999.99966
5999999.99951
5999999.99995
5999999.99984
6000000.00007
6000000.00018
5999999.99761
6000000.00307
5999999.99873
5999999.9992
5999999.99995
5999999.99745
6000000.00095
6000000.00091
6000000.00004
6000000.00036
5999999.99893
6000000.0035
5999999.99992
6000000.00005
6000000.00055
5999999.9995
6000000.00042
5999999.99799
6000000.00527
6000000.00325
5999999.99559
5999999.99828
6000000.00227
5999999.99803
6000000.00357
5999999.99921
5999999.99998
6000000.00006
5999999.99964
6000000.00016
5999999.99936
6000000.00109
5999999.99733
6000000.00188
6000000.00093
6000000.00087
5999999.99974
6000000.00025
5999999.99697
6000000.00733
6000000.00329
5999999.99426
6000000.00138
6000000.00309
6000000.00438
5999999.99641
5999999.99495
6000000.00345
5999999.99873
5999999.99952
6000000.00014
5999999.99995
5999999.99992
5999999.99996
6000000.00002
5999999.99989
5999999.99993
5999999.99988
6000000.00019
5999999.99863
6000000.00203
5999999.99735
5999999.99951
6000000.00129
5999999.99361
6000000.00499
6000000.00547
6000000.0017
5999999.99914
6000000.00338
6000000.0052
5999999.99709
5999999.99587
6000000.00343
5999999.9994
6000000.00338
6000000.00532
6000000.00058
6000000.00597
6000000.00007
5999999.99979
6000000.00095
6000000.00068
5999999.99988
6000000.00005
6000000.00341
5999999.99829
6000000.00093
6000000.00185
6000000.00317
6000000.00254
5999999.99422
6000000.00159
6000000.00058
6000000.00046
5999999.9991
6000000.00552
6000000.00309
5999999.99798
6000000.00271
6000000.0002
5999999.99952
6000000.00068
5999999.9993
6000000.00204
5999999.9933
6000000.00284
6000000.00166
5999999.99985
5999999.99909
6000000.00008
6000000.00095
5999999.99988
6000000.00003
6000000.00002
6000000
6000000.00001
5999999.99989
6000000.00001
5999999.99981
6000000
6000000.00019
5999999.99915
6000000.00123
5999999.99977
5999999.9998
5999999.99974
6000000.00012
5999999.9985
6000000.00029
6000000.00036
6000000.00069
5999999.99804
5999999.99817
6000000.00104
6000000.00143
5999999.99891
6000000.00098
5999999.99846
6000000.00272
6000000.00222
6000000.00049
6000000.00031
5999999.99956
5999999.99886
6000000.00226
5999999.99521
6000000.00671
5999999.99673
5999999.99486
6000000.00415
6000000.00444
6000000.0053
6000000.00001
6000000.00016
5999999.99517
5999999.99496
5999999.99565
6000000.00164
5999999.99768
6000000.00527
5999999.99933
5999999.99769
6000000.00073
5999999.99756
6000000.00169
5999999.99802
6000000.00479
5999999.99349
5999999.99593
6000000.00461
5999999.99526
5999999.99684
5999999.99827
6000000.0016
6000000.00146
6000000.00108
6000000.00002
6000000.00105
6000000.00034
6000000.00232
5999999.99622
6000000.0018
6000000.00098
5999999.99983
5999999.99802
5999999.99984
5999999.99985
5999999.998
5999999.99886
6000000.00117
5999999.99994
6000000.00137
6000000.00191
5999999.99774
5999999.99886
6000000.00419
5999999.99936
5999999.99981
5999999.99991
6000000.00001
6000000.00001
6000000.00014
6000000.00003
5999999.99991
6000000.00057
6000000.00025
5999999.99647
6000000.00063
5999999.99986
5999999.99982
6000000.00001
6000000.00032
5999999.9981
6000000.00317
6000000.00198
5999999.99508
6000000.00672
5999999.99384
5999999.99272
6000000.00292
6000000.00585
5999999.99225
5999999.99764
5999999.99744
5999999.9995
6000000.00193
5999999.99813
6000000.00091
5999999.99642
5999999.99716
6000000.00024
5999999.99783
6000000.00286
5999999.99772
6000000.00175
6000000.00308
5999999.99532
5999999.99584
5999999.9947
5999999.99958
6000000.00472
6000000.00188
5999999.99619
5999999.99302
6000000.00419
6000000.00319
5999999.99431
5999999.99884
6000000.00555
6000000.00425
5999999.99757
5999999.99804
6000000.00395
5999999.99973
6000000.00002
6000000.00001
5999999.99997
6000000.00069
6000000.00148
5999999.99853
5999999.99829
5999999.99894
6000000.0001
6000000.00139
5999999.99968
6000000.00052
5999999.99843
5999999.99783
6000000.00141
6000000.00042
6000000.00015
6000000.00002
6000000
5999999.99992
5999999.99996
6000000.00021
5999999.99937
5999999.99871
6000000.00016
6000000.00253
5999999.99792
5999999.9999
5999999.99995
5999999.99508
6000000.0008
6000000.00058
6000000.00382
6000000.00168
5999999.99971
6000000.00113
6000000.00046
5999999.99784
6000000.0032
5999999.99694
6000000.00276
6000000.0011
6000000.00448
5999999.99945
5999999.99971
6000000.00597
6000000.00241
6000000.00313
6000000.00194
5999999.99625
5999999.99894
6000000.00251
5999999.99986
5999999.99713
5999999.99749
6000000.00209
5999999.99721
5999999.99927
5999999.99715
6000000.00029
6000000.00219
5999999.99868
5999999.99872
5999999.99873
5999999.99981
5999999.99981
6000000.00109
6000000.00036
6000000.00047
5999999.9992
6000000.00148
6000000.00154
5999999.99795
6000000.00013
6000000.00011
6000000.00002
6000000.00011
6000000.00009
6000000.00079
6000000.00116
5999999.99829
6000000.00244
6000000.00161
5999999.99656
6000000.00451
5999999.99531
5999999.99851
6000000.00267
6000000.00662
6000000.00309
6000000.00216
6000000.00158
5999999.99286
5999999.99743
5999999.99848
5999999.99928
6000000.00317
6000000.00509
5999999.99341
5999999.99705
5999999.9947
6000000.00592
6000000.00278
6000000.00281
5999999.99884
6000000.00077
6000000.00078
6000000.0017
5999999.99953
5999999.99907
5999999.99975
6000000.00003
5999999.99997
6000000.00077
5999999.9992
6000000.0009
5999999.9996
6000000.00003
5999999.99877
5999999.99622
6000000.00308
6000000.00097
5999999.99584
5999999.99511
6000000.00591
5999999.99816
5999999.99565
6000000.00173
6000000.0064
5999999.99523
6000000.00409
5999999.9989
5999999.99832
6000000.00504
5999999.99942
6000000.00015
5999999.99998
6000000
6000000.00007
6000000.00001
6000000.00007
6000000.00002
6000000.00007
6000000.0002
6000000.00025
6000000.00003
6000000.00006
5999999.99956
6000000.00088
6000000.00149
5999999.99558
6000000.00337
6000000.00511
5999999.99858
6000000.00177
6000000.00198
6000000.00216
5999999.99938
6000000.00042
5999999.99362
6000000.0011
5999999.99928
6000000.00143
6000000.00236
5999999.99895
5999999.99873
5999999.99928
5999999.99908
6000000.00023
5999999.99874
6000000.00112
6000000.00202
5999999.99841
5999999.99945
5999999.99909
6000000.00095
5999999.9999
6000000
5999999.99994
5999999.9994
6000000.00065
5999999.99927
5999999.99786
6000000.00335
5999999.99675
6000000.00163
5999999.99908
5999999.99942
5999999.99977
5999999.99925
6000000.00198
5999999.99534
6000000.00202
5999999.99942
5999999.99936
6000000.00002
5999999.99944
5999999.99986
5999999.99976
6000000.00086
5999999.99872
5999999.99939
5999999.99995
5999999.99993
5999999.99992
5999999.99998
6000000.00009
5999999.99993
5999999.99979
6000000
5999999.99989
5999999.9999
6000000.00001
5999999.99965
6000000.00132
5999999.99971
6000000.00014
6000000.00015
6000000.00122
5999999.99838
6000000.00171
5999999.99667
6000000.00228
6000000.00143
6000000.00203
6000000.00243
5999999.99691
5999999.99943
5999999.99824
6000000.00216
5999999.99918
5999999.99773
6000000.00128
5999999.99853
5999999.9993
5999999.9997
6000000.00025
6000000.00389
6000000.00158
6000000.00332
5999999.999
6000000.00032
6000000.00225
5999999.99512
6000000.00105
5999999.99661
6000000.00483
6000000.00219
5999999.99458
5999999.99515
5999999.99524
6000000.00555
6000000.00192
6000000.00589
5999999.997
5999999.99762
6000000.00086
5999999.99482
5999999.99478
5999999.99718
5999999.99819
6000000.00188
5999999.99533
5999999.9972
5999999.99303
6000000.00008
5999999.9951
5999999.99792
5999999.99693
5999999.99682
5999999.99582
5999999.99504
6000000.00388
6000000.00107
6000000.0012
5999999.99486
6000000.00192
5999999.9999
5999999.99995
6000000.00078
5999999.99902
6000000.00012
5999999.99637
6000000.00338
5999999.99442
5999999.99464
6000000.00219
5999999.99447
5999999.99508
6000000.00611
5999999.99527
5999999.99393
6000000.00088
6000000.00179
5999999.9996
6000000.00103
6000000.0003
6000000.00019
5999999.99991
6000000.00059
5999999.99952
6000000.00044
5999999.99943
6000000.00015
6000000.00016
5999999.99992
5999999.99993
6000000
6000000.00113
5999999.99945
5999999.99957
6000000.00127
5999999.99996
5999999.99991
5999999.99981
5999999.9995
5999999.99905
6000000.00028
6000000.00003
6000000.00021
5999999.99981
5999999.9994
6000000.0005
6000000.00175
5999999.99868
6000000.001
6000000.00249
6000000.00248
5999999.99649
5999999.99761
6000000.00271
5999999.99951
6000000.00107
6000000.00064
5999999.99713
6000000.00255
6000000.00206
6000000.00026
5999999.99847
6000000.00006
5999999.99813
6000000.00305
6000000.00034
6000000.00117
5999999.99887
5999999.998
6000000.00565
6000000.00547
5999999.99305
5999999.99722
6000000.00187
6000000.00148
5999999.99881
6000000.00124
5999999.99999
6000000.00313
5999999.9991
6000000.00196
5999999.99967
5999999.99971
6000000.00001
6000000.00004
5999999.99996
5999999.99998
5999999.99998
6000000.00001
6000000.00004
6000000.00014
6000000
6000000
6000000.00001
5999999.99998
6000000.00016
5999999.99997
6000000.00001
5999999.99993
5999999.99996
6000000.00014
6000000.00019
5999999.99995
6000000.00014
5999999.99999
6000000
5999999.9999
6000000.00023
5999999.99995
6000000.00022
5999999.99964
5999999.99945
5999999.99935
6000000.0002
5999999.99989
6000000.00227
5999999.99951
5999999.99968
5999999.99984
6000000.0001
6000000.00003
6000000.00013
5999999.99993
6000000.00001
6000000
6000000
5999999.99919
6000000.00063
5999999.99888
6000000.003
5999999.99958
5999999.99879
6000000.00148
5999999.99881
6000000.0033
6000000.00378
5999999.99891
5999999.99979
6000000.00631
6000000.00086
6000000.0007
6000000.00075
5999999.99973
6000000.00005
6000000.00007
6000000.00026
6000000.00008
6000000.00006
6000000.0002
5999999.99934
6000000.00101
6000000.00047
6000000.00031
6000000.00021
5999999.9998
6000000.00002
5999999.99992
6000000.00002
6000000.00001
6000000.00085
5999999.99856
5999999.99753
6000000.00281
5999999.99788
6000000.00261
5999999.99688
5999999.99917
5999999.99989
5999999.9974
5999999.99957
6000000.00341
5999999.99555
5999999.99423
6000000.00135
5999999.99375
5999999.99349
6000000.00127
5999999.99719
5999999.99907
5999999.99601
6000000.00215
6000000.00203
5999999.99708
6000000.00419
5999999.99797
5999999.998
6000000.00221
6000000.00203
5999999.99987
5999999.99943
5999999.99973
6000000.00007
5999999.9999
5999999.99956
6000000.00153
5999999.99946
6000000.00173
5999999.99854
5999999.99839
6000000.00018
5999999.99889
5999999.99946
5999999.99819
5999999.99893
5999999.99889
5999999.99994
5999999.99883
6000000.0039
5999999.99949
5999999.99834
5999999.99976
5999999.99998
5999999.99996
5999999.99983
5999999.99983
6000000.00022
5999999.99998
5999999.99996
6000000.00014
6000000.00009
5999999.99998
6000000.00007
5999999.99998
6000000.00019
6000000.00033
6000000.00052
5999999.9979
5999999.99856
6000000.00098
6000000.00012
5999999.99998
5999999.99997
6000000.00002
5999999.99989
5999999.99979
6000000.00008
6000000
5999999.99916
6000000.00065
5999999.99954
6000000.00111
5999999.99932
6000000.00012
6000000.00159
5999999.99949
6000000.00037
5999999.99978
6000000.00004
5999999.99991
6000000
5999999.99983
5999999.99991
5999999.99997
5999999.99963
5999999.99882
6000000.00024
5999999.99904
6000000.00245
5999999.99844
6000000.00076
6000000.00035
5999999.99985
6000000.00017
6000000.00102
5999999.99928
5999999.9957
6000000.00313
6000000.00018
6000000.00011
6000000.00054
6000000.00145
6000000.00064
5999999.99779
6000000.00364
6000000.00325
6000000.00007
5999999.99819
6000000.00237
6000000.00166
5999999.99857
6000000.00474
6000000.00032
6000000.00252
5999999.99691
5999999.99764
6000000.00107
5999999.99914
5999999.99985
5999999.99708
6000000.00363
6000000.00078
5999999.99909
6000000.00026
5999999.99846
6000000.00286
5999999.99849
6000000.00169
5999999.99526
6000000.00553
6000000.00442
5999999.99809
6000000.00124
5999999.99349
5999999.99282
6000000.0034
6000000.0026
6000000.00488
5999999.99857
5999999.9958
6000000.00429
5999999.9964
5999999.99868
5999999.9989
5999999.9984
6000000.00083
5999999.99939
6000000.00022
5999999.99972
5999999.99957
6000000.00028
5999999.99801
6000000.00167
5999999.99967
5999999.99918
6000000.00191
5999999.99845
6000000.00109
5999999.99642
6000000.00022
5999999.99999
5999999.99964
5999999.99845
5999999.99845
6000000.00147
6000000.00136
5999999.99935
6000000.00634
6000000.00251
5999999.99495
6000000.00274
5999999.99867
6000000.00636
6000000.00466
5999999.99739
5999999.99585
5999999.99881
6000000.00647
6000000.00196
5999999.99734
5999999.99651
5999999.99537
6000000.00291
5999999.99684
5999999.99479
5999999.99826
5999999.99468
6000000.00409
5999999.99731
5999999.99718
5999999.99876
6000000.00167
5999999.99766
5999999.99776
6000000.00147
6000000.00117
5999999.99667
5999999.99758
5999999.99588
5999999.99601
5999999.9972
5999999.99832
6000000.0008
5999999.99352
5999999.99463
6000000.0014
6000000.00031
5999999.99551
5999999.99611
5999999.99508
5999999.99406
6000000.00419
5999999.99723
5999999.99232
5999999.99989
5999999.99575
6000000.00203
6000000.0054
5999999.99251
5999999.99444
5999999.99754
6000000.00538
6000000.0011
5999999.99784
6000000.0033
6000000.005
5999999.99977
6000000.00604
5999999.99619
5999999.99365
6000000.00369
6000000.00072
5999999.99944
5999999.99468
5999999.9964
6000000.00271
5999999.99606
5999999.99837
6000000.00212
5999999.99896
6000000.00294
6000000.00716
6000000.00321
5999999.99851
5999999.99526
5999999.99725
6000000.00583
6000000.00223
5999999.99563
5999999.99716
6000000.00086
6000000.00623
6000000.00096
5999999.99894
5999999.99978
6000000.00153
5999999.99847
5999999.99908
6000000.00359
6000000.00172
5999999.99693
6000000.00265
5999999.99663
5999999.99963
5999999.99736
6000000.0005
6000000.0019
5999999.99409
6000000
6000000.00111
5999999.99415
5999999.99748
6000000.00295
5999999.99812
5999999.99808
6000000.00254
5999999.99841
5999999.99656
5999999.99555
5999999.99813
5999999.99592
5999999.99929
5999999.99797
6000000.0068
5999999.99764
6000000.00036
6000000.00532
5999999.99862
6000000.0018
5999999.99999
6000000.0086
5999999.9971
6000000.00074
6000000.00633
6000000.00692
5999999.99892
5999999.99791
6000000.0101
6000000.00792
6000000.00615
5999999.99807
5999999.99791
6000000.00805
6000000.00847
6000000.0018
6000000.00673
6000000.00236
5999999.9949
6000000.00678
6000000.00796
6000000.00014
5999999.99719
6000000.00753
6000000.0026
5999999.99395
6000000.00242
6000000.00218
6000000.00915
6000000.00777
5999999.99762
6000000.00224
6000000.00721
5999999.99612
5999999.99933
6000000.0065
6000000.00932
6000000.00049
6000000.00633
6000000.00563
6000000.00487
5999999.99795
6000000.00118
6000000.00844
6000000.00952
6000000.01012
6000000.00301
6000000.00291
6000000.00639
6000000.01036
5999999.99971
6000000.00289
6000000.00577
5999999.99657
6000000.00579
6000000.00523
6000000.00987
6000000.0042
6000000.00743
6000000.00577
5999999.99352
6000000.00685
6000000.00219
5999999.99843
6000000.00877
5999999.99882
5999999.99982
5999999.99857
6000000.00046
5999999.99829
5999999.99963
5999999.9989
5999999.99952
5999999.99926
5999999.9995
5999999.99725
5999999.99778
5999999.99961
5999999.99816
6000000.00022
5999999.99826
5999999.99898
5999999.99822
6000000.00014
5999999.99797
5999999.9974
5999999.99857
5999999.99968
5999999.99859
5999999.99869
5999999.99961
5999999.99763
5999999.99848
5999999.99929
5999999.99571
5999999.9983
6000000.00022
5999999.99914
5999999.99664
5999999.99942
5999999.9975
5999999.9999
5999999.99893
5999999.99872
5999999.9968
5999999.99906
6000000.00005
5999999.99787
5999999.9994
5999999.99965
5999999.99868
5999999.99882
5999999.99918
5999999.99669
5999999.99683
5999999.99937
5999999.99992
6000000.00022
6000000.00075
5999999.99827
5999999.999
5999999.99792
5999999.99826
5999999.99835
5999999.99872
5999999.99957
6000000.00044
6000000.00206
5999999.99834
5999999.99944
5999999.99939
5999999.99982
5999999.99961
6000000.00058
5999999.9998
5999999.99951
6000000.00032
5999999.99972
5999999.99975
5999999.99971
5999999.99975
6000000.00052
6000000.00004
5999999.99981
5999999.99966
6000000.00026
6000000.00038
5999999.99979
6000000.00029
5999999.99986
6000000.00037
5999999.99989
5999999.99985
6000000.00021
5999999.99998
6000000.00042
5999999.99982
5999999.99999
5999999.99945
6000000.00031
6000000.00045
6000000.00025
6000000.00053
5999999.9999
6000000.00047
6000000.00052
5999999.99969
6000000.0002
5999999.99989
6000000.00039
6000000.00009
5999999.99968
6000000.00052
6000000.00015
6000000.00048
6000000.00031
5999999.99958
5999999.99973
5999999.99972
6000000.00014
6000000.0001
6000000.00037
6000000.00045
5999999.9997
6000000.00004
6000000.00024
5999999.99993
6000000.00027
6000000.00017
6000000.00025
6000000.00044
5999999.99972
6000000.00063
6000000.00068
6000000.00094
6000000.00094
6000000.00108
6000000.00062
6000000.001
6000000.00083
6000000.00119
6000000.00079
6000000.00081
6000000.00081
6000000.00085
6000000.0008
6000000.00081
6000000.00088
6000000.00097
6000000.00074
6000000.00085
6000000.00109
6000000.00088
6000000.00106
6000000.00116
6000000.0007
6000000.00103
6000000.00094
6000000.00086
6000000.00071
6000000.00051
6000000.00096
6000000.00084
6000000.00086
6000000.00088
6000000.00082
6000000.00116
6000000.00072
6000000.00093
6000000.00067
6000000.0008
6000000.00059
6000000.00085
6000000.00099
6000000.00097
6000000.00093
6000000.00089
6000000.0009
6000000.00092
6000000.00079
6000000.00098
6000000.00116
6000000.00116
6000000.00073
6000000.00083
6000000.0008
6000000.00094
6000000.00093
6000000.00091
6000000.00095
6000000.00096
6000000.00095
6000000.00092
6000000.00088
6000000.00118
6000000.00135
6000000.00085
5999999.99905
5999999.99874
5999999.99886
5999999.99898
5999999.99878
5999999.99921
5999999.99885
5999999.99879
5999999.99873
5999999.99875
5999999.99888
5999999.99904
5999999.99904
5999999.99887
5999999.99864
5999999.99879
5999999.99877
5999999.99903
5999999.99891
5999999.99908
5999999.99881
5999999.99879
5999999.99918
5999999.99897
5999999.9988
5999999.99892
5999999.99935
5999999.99877
5999999.99894
5999999.99908
5999999.99903
5999999.99941
5999999.99909
5999999.99908
5999999.99885
5999999.99888
5999999.99915
5999999.99871
5999999.99863
5999999.99869
5999999.99907
5999999.99907
5999999.99884
5999999.99903
5999999.99894
5999999.99897
5999999.99929
5999999.99909
5999999.99884
5999999.99899
5999999.99887
5999999.99869
5999999.99887
5999999.99864
5999999.99893
5999999.99889
5999999.99899
5999999.99899
5999999.9989
5999999.99889
5999999.99883
5999999.99902
5999999.99881
5999999.99888
5999999.99952
5999999.9993
5999999.99951
5999999.99979