/*--------------------------------*- C++ -*----------------------------------*\
  =========                 |
  \\      /  F ield         | OpenFOAM: The Open Source CFD Toolbox
   \\    /   O peration     | Website:  https://openfoam.org
    \\  /    A nd           | Version:  6
     \\/     M anipulation  |
\*---------------------------------------------------------------------------*/
FoamFile
{
    version     2.0;
    format      ascii;
    class       volVectorField;
    location    "4.75e-05";
    object      U;
}
// * * * * * * * * * * * * * * * * * * * * * * * * * * * * * * * * * * * * * //

dimensions      [0 1 -1 0 0 0 0];

internalField   nonuniform List<vector> 
8192
(
(-88.322 0 -2.79718276502e-10)
(-88.3219999996 0 -7.61818629165e-11)
(-88.3220000001 0 -6.86433854785e-11)
(-88.3220000003 0 -2.60508392274e-10)
(-88.3219999995 0 -6.2685475966e-11)
(-88.3219999997 0 1.10416060855e-11)
(-88.3220000003 0 -1.88711457073e-12)
(-88.322 0 9.89508430282e-11)
(-88.322 0 -2.55624651248e-10)
(-88.322 0 -5.6976157833e-10)
(-88.3219999999 0 -7.01836284453e-10)
(-88.322 0 3.59951245453e-10)
(-88.3220000002 0 6.5491315361e-10)
(-88.322 0 -7.36547357361e-10)
(-88.3219999998 0 -6.17970872476e-10)
(-88.3219999999 0 3.51700977255e-10)
(-88.3219999998 0 2.83465734487e-10)
(-88.3219999999 0 6.34260072725e-10)
(-88.3220000002 0 -4.19334189575e-10)
(-88.322 0 -5.55837559145e-10)
(-88.3219999997 0 2.60595211003e-10)
(-88.3220000003 0 3.78663977992e-10)
(-88.3220000003 0 -5.87420827661e-10)
(-88.3219999998 0 -5.58360890008e-10)
(-88.322 0 1.65126600004e-10)
(-88.3219999999 0 1.73493183267e-10)
(-88.3219999999 0 2.16320835136e-10)
(-88.3219999999 0 1.82495818718e-10)
(-88.3220000002 0 2.97584137852e-10)
(-88.3220000002 0 -1.5170433432e-10)
(-88.3219999999 0 2.09567999579e-10)
(-88.3219999997 0 -4.67202392542e-11)
(-88.321999999 0 1.20057049023e-10)
(-88.3220000018 0 5.31771383185e-10)
(-88.3220000026 0 -8.18561225719e-10)
(-88.3219999987 0 -6.19716709871e-10)
(-88.3219999996 0 -1.54917016446e-11)
(-88.3219999996 0 -5.53539169068e-10)
(-88.3219999986 0 1.70809885353e-10)
(-88.3220000006 0 1.67714805792e-10)
(-88.3220000001 0 -4.93083876444e-11)
(-88.3219999998 0 5.70848504405e-11)
(-88.3220000002 0 -1.31803151624e-11)
(-88.322 0 -1.49057155244e-11)
(-88.322 0 -5.63177715282e-11)
(-88.322 0 -3.54317253464e-11)
(-88.322 0 -1.86881762847e-11)
(-88.322 0 -1.85379898426e-11)
(-88.322 0 2.53655005105e-11)
(-88.3219999998 0 -8.8339395814e-11)
(-88.3219999999 0 1.17309154139e-10)
(-88.3220000006 0 -5.46206246016e-11)
(-88.3219999995 0 -2.02830483533e-10)
(-88.3219999993 0 3.29949442903e-10)
(-88.3220000012 0 1.81599809048e-10)
(-88.3220000006 0 -2.11384036573e-10)
(-88.322 0 -3.39534705848e-11)
(-88.3219999998 0 -1.6874405182e-10)
(-88.3220000002 0 -4.02140718586e-11)
(-88.3219999992 0 -2.96214749876e-10)
(-88.3219999984 0 3.32887889292e-10)
(-88.3219999998 0 3.87090539383e-10)
(-88.3220000009 0 3.57108176016e-10)
(-88.3220000014 0 -1.68611694122e-11)
(-88.322 0 -3.14974760933e-10)
(-88.3219999999 0 -8.59030428902e-11)
(-88.3220000002 0 1.18359817034e-10)
(-88.3219999997 0 1.14001988399e-11)
(-88.322 0 2.35964507574e-10)
(-88.3220000002 0 -1.16696140829e-10)
(-88.3219999995 0 4.64392477761e-11)
(-88.3220000005 0 5.11424940788e-12)
(-88.3220000013 0 -6.37629832246e-12)
(-88.3220000008 0 -5.92099874419e-11)
(-88.3219999982 0 6.60374596174e-11)
(-88.3219999973 0 -2.33558318871e-10)
(-88.322000002 0 -2.3832349408e-11)
(-88.3220000024 0 -1.78654396138e-10)
(-88.321999998 0 -3.02981163528e-10)
(-88.3219999983 0 2.94207975822e-10)
(-88.3219999996 0 2.19933224452e-10)
(-88.3220000016 0 1.48488019749e-10)
(-88.3220000022 0 -3.29523008591e-10)
(-88.3219999988 0 -1.88954542373e-10)
(-88.3219999985 0 -5.35115406597e-11)
(-88.3220000014 0 -7.68606478778e-12)
(-88.3220000016 0 2.00085407064e-10)
(-88.3219999987 0 -6.83097106792e-11)
(-88.3219999986 0 4.32590492472e-10)
(-88.322 0 -1.9971989213e-10)
(-88.3220000001 0 3.13087681916e-10)
(-88.3219999999 0 2.91296991813e-10)
(-88.3220000005 0 -6.23148526013e-11)
(-88.322 0 1.9367452329e-11)
(-88.3219999998 0 7.05919685494e-11)
(-88.3220000004 0 1.89295087901e-11)
(-88.3219999998 0 -2.22852055796e-10)
(-88.3220000003 0 -4.53979893556e-10)
(-88.322 0 5.46413738662e-10)
(-88.3219999995 0 6.26329886733e-10)
(-88.3220000001 0 3.35248057537e-12)
(-88.322 0 3.0332171037e-10)
(-88.322 0 -1.70748145201e-10)
(-88.322 0 -2.09890371121e-10)
(-88.322 0 1.40570542704e-10)
(-88.322 0 -8.14137047286e-11)
(-88.322 0 6.39050262149e-11)
(-88.322 0 -1.91618023791e-10)
(-88.322 0 -3.94241495877e-10)
(-88.322 0 -3.33585002549e-10)
(-88.322 0 -3.24076795036e-10)
(-88.322 0 -3.88181910223e-10)
(-88.322 0 -3.68316827544e-10)
(-88.322 0 -9.05926506877e-11)
(-88.322 0 3.03455470648e-10)
(-88.3220000001 0 -8.7561040839e-11)
(-88.3219999998 0 5.73367301486e-11)
(-88.322 0 -1.01926708457e-10)
(-88.3220000001 0 -2.79472761475e-10)
(-88.322 0 4.13164946831e-10)
(-88.322 0 -1.71193795685e-10)
(-88.3220000001 0 -1.69838221515e-10)
(-88.322 0 -3.85107434081e-10)
(-88.3219999999 0 8.63818108721e-10)
(-88.322 0 3.27654742194e-10)
(-88.3220000001 0 -7.99761464784e-10)
(-88.3220000001 0 -1.07720627141e-09)
(-88.322 0 -4.41943301795e-10)
(-88.3219999993 0 7.10073532934e-11)
(-88.3219999988 0 9.62710780995e-11)
(-88.322 0 -2.93316260554e-11)
(-88.322 0 1.90001920137e-10)
(-88.3219999999 0 -1.50011449145e-10)
(-88.322 0 1.39132591278e-10)
(-88.322 0 -4.08038991252e-11)
(-88.322 0 -9.60318811743e-11)
(-88.3220000001 0 2.26978387301e-10)
(-88.3219999999 0 5.31836522903e-10)
(-88.3220000003 0 6.60198815407e-10)
(-88.3220000002 0 -2.59032698966e-10)
(-88.322 0 -5.6485548099e-10)
(-88.3220000005 0 5.35739450761e-10)
(-88.3219999989 0 5.55373140004e-10)
(-88.3219999988 0 -3.70709323729e-10)
(-88.3220000001 0 -2.90239580989e-10)
(-88.3220000009 0 -5.72403096465e-10)
(-88.3220000009 0 4.50484593801e-10)
(-88.3219999994 0 5.15507226609e-10)
(-88.3219999993 0 -2.23395860257e-10)
(-88.3219999998 0 -2.16754602175e-10)
(-88.3220000004 0 5.59274165261e-10)
(-88.3219999994 0 5.54429530026e-10)
(-88.3220000003 0 -8.69721970535e-11)
(-88.322 0 -1.59856597306e-10)
(-88.3219999989 0 -8.93153177335e-11)
(-88.3220000007 0 9.06439088449e-11)
(-88.3220000007 0 -7.18816470495e-11)
(-88.3219999999 0 4.78374577083e-11)
(-88.322 0 8.77716026797e-11)
(-88.3220000003 0 -8.63055267284e-12)
(-88.322 0 -4.6710956641e-10)
(-88.322 0 4.41615259349e-10)
(-88.3220000002 0 6.23371118841e-10)
(-88.322 0 -3.99181411995e-10)
(-88.3220000003 0 -6.89541787625e-10)
(-88.322 0 8.22830296117e-10)
(-88.3219999997 0 4.06711461721e-10)
(-88.3219999999 0 -3.63942141412e-10)
(-88.322 0 -4.41173484638e-10)
(-88.322 0 1.86692879647e-10)
(-88.3220000004 0 -2.78404437794e-10)
(-88.322000001 0 -6.39826751972e-11)
(-88.3220000003 0 -3.42285861031e-10)
(-88.3219999998 0 6.03470115771e-11)
(-88.3220000001 0 -5.96832656959e-10)
(-88.3219999999 0 -5.93305892026e-10)
(-88.3219999994 0 4.95354905676e-10)
(-88.3219999986 0 2.19521296488e-11)
(-88.322 0 -3.93132535294e-10)
(-88.322000001 0 1.76013421978e-10)
(-88.3219999995 0 -4.4232363973e-10)
(-88.322 0 4.08243320993e-10)
(-88.322 0 7.0640587154e-11)
(-88.3220000004 0 -3.44699339083e-10)
(-88.3220000012 0 -3.70057249985e-10)
(-88.3220000003 0 -3.92634225673e-10)
(-88.3219999982 0 -1.66163284241e-10)
(-88.3219999978 0 -1.87483046932e-10)
(-88.3220000019 0 -1.56521914141e-10)
(-88.3220000027 0 8.4118245999e-11)
(-88.3220000001 0 5.58526105341e-11)
(-88.3219999999 0 7.71191289042e-11)
(-88.322 0 6.258018693e-10)
(-88.322 0 1.86624486226e-10)
(-88.322 0 -4.63190639014e-11)
(-88.322 0 1.58923504984e-10)
(-88.322 0 -1.90571234786e-10)
(-88.322 0 3.75270548401e-11)
(-88.322 0 1.33738758241e-11)
(-88.322 0 3.72432868067e-11)
(-88.322 0 2.69570958054e-11)
(-88.322 0 9.39457097587e-11)
(-88.3219999998 0 -3.2656374764e-11)
(-88.3219999997 0 1.6549891962e-10)
(-88.3220000005 0 -1.30556228199e-11)
(-88.3220000002 0 3.84898247532e-10)
(-88.3219999998 0 3.42042007532e-10)
(-88.322 0 -2.82827859867e-10)
(-88.322 0 -2.10638058559e-10)
(-88.322 0 -2.84861224792e-10)
(-88.322 0 4.91406213675e-10)
(-88.322 0 4.42159119985e-10)
(-88.322 0 -5.03218818201e-10)
(-88.3219999999 0 -5.0880957589e-10)
(-88.322 0 3.20131594808e-10)
(-88.322 0 5.03353000683e-10)
(-88.322 0 -2.02885857312e-10)
(-88.322 0 5.7171912235e-10)
(-88.3219999996 0 -1.95929438752e-10)
(-88.3219999999 0 4.0857931768e-11)
(-88.3220000006 0 -1.0384383604e-10)
(-88.3219999997 0 -2.65536295593e-10)
(-88.3219999999 0 9.19813861938e-11)
(-88.3220000015 0 -8.78414888234e-11)
(-88.3219999989 0 6.44163939495e-12)
(-88.3219999982 0 -8.49591474266e-11)
(-88.3220000017 0 4.32369001967e-11)
(-88.3220000021 0 9.3545081379e-11)
(-88.3219999978 0 -7.34643809403e-11)
(-88.3219999978 0 3.61199877733e-10)
(-88.3220000023 0 -2.30574601404e-11)
(-88.3220000016 0 3.84360840591e-11)
(-88.3219999989 0 -7.0872890209e-11)
(-88.3219999998 0 -3.52147848998e-12)
(-88.3220000005 0 -8.32019640326e-11)
(-88.3220000002 0 1.93443061538e-10)
(-88.3219999997 0 4.24258945483e-10)
(-88.3220000005 0 3.31401655553e-10)
(-88.3220000013 0 3.46772713191e-10)
(-88.3219999978 0 2.68387673899e-10)
(-88.3219999989 0 5.13803514583e-10)
(-88.3220000017 0 1.98703989997e-10)
(-88.3219999998 0 -3.61747685188e-10)
(-88.3220000002 0 1.09533886726e-10)
(-88.3219999993 0 -1.9480516656e-10)
(-88.321999999 0 2.42716024109e-10)
(-88.3220000015 0 5.63498352277e-10)
(-88.3220000008 0 -5.37199916207e-10)
(-88.3220000001 0 -1.62952681237e-10)
(-88.3219999997 0 4.31082569933e-10)
(-88.3219999996 0 5.76594353515e-11)
(-88.3219999998 0 -4.6360781795e-10)
(-88.3219999995 0 -1.03982834474e-09)
(-88.3219999998 0 8.33360493145e-10)
(-88.3220000001 0 9.61984367961e-10)
(-88.322 0 7.42619946148e-10)
(-88.3220000005 0 -3.10365739148e-10)
(-88.3220000001 0 -1.19696358985e-10)
(-88.322 0 2.27081822548e-10)
(-88.3220000004 0 -3.80626002063e-11)
(-88.322 0 -5.61078110487e-11)
(-88.3219999996 0 -1.08055763979e-11)
(-88.322 0 1.01245430354e-12)
(-88.322 0 3.20426934738e-11)
(-88.322 0 1.88451097146e-11)
(-88.322 0 -6.0252781456e-12)
(-88.322 0 6.48641245128e-11)
(-88.3220000001 0 -2.59200868469e-10)
(-88.3219999997 0 -2.73256983389e-10)
(-88.3219999999 0 3.71153966456e-11)
(-88.3220000002 0 -2.56858685823e-11)
(-88.322 0 3.43927745493e-11)
(-88.3220000001 0 1.51085912713e-10)
(-88.3219999995 0 1.4808329664e-10)
(-88.3219999995 0 -2.33347943341e-11)
(-88.3220000015 0 -2.51172490154e-14)
(-88.3220000012 0 2.90268583702e-11)
(-88.3219999981 0 2.68120717916e-11)
(-88.3219999984 0 7.70722086321e-11)
(-88.3220000005 0 -1.2626924924e-10)
(-88.3220000001 0 1.28536098582e-10)
(-88.3220000001 0 3.6607504765e-12)
(-88.3219999999 0 2.52329831712e-10)
(-88.3220000005 0 2.84257494235e-10)
(-88.3220000012 0 3.60984432649e-10)
(-88.3219999994 0 -2.85504426789e-11)
(-88.3219999995 0 1.48789159132e-10)
(-88.3220000004 0 3.92293694453e-10)
(-88.322 0 -3.21395845071e-11)
(-88.322 0 -5.33916570804e-10)
(-88.3219999998 0 -7.51728353647e-10)
(-88.3220000002 0 1.91829170433e-10)
(-88.3219999997 0 8.5973517467e-10)
(-88.3219999999 0 -1.068982935e-09)
(-88.3220000003 0 -2.82826615931e-10)
(-88.322 0 1.64968441928e-10)
(-88.322 0 3.86056049631e-10)
(-88.322 0 -1.5776717886e-10)
(-88.322 0 2.40887557352e-10)
(-88.322 0 7.03177231183e-11)
(-88.322 0 3.14899333049e-10)
(-88.322 0 -4.6538116028e-11)
(-88.3220000002 0 5.94387230736e-10)
(-88.3219999997 0 5.09993024991e-10)
(-88.3219999996 0 -4.29583764448e-10)
(-88.3220000004 0 -1.27317767052e-10)
(-88.3220000001 0 2.95945093741e-10)
(-88.3220000007 0 -4.67914640882e-12)
(-88.3219999993 0 3.5524184863e-10)
(-88.3219999985 0 -4.16110218587e-10)
(-88.3220000015 0 -7.09287136677e-11)
(-88.3220000018 0 -2.3747151645e-10)
(-88.3219999992 0 1.61672101911e-10)
(-88.3219999999 0 1.15239755533e-10)
(-88.3219999998 0 -3.01656941156e-10)
(-88.3220000001 0 7.75734979982e-10)
(-88.3219999993 0 6.48999454257e-10)
(-88.3219999986 0 3.93562570054e-10)
(-88.3220000002 0 1.62829875029e-10)
(-88.3220000004 0 -1.51866479548e-11)
(-88.3220000002 0 -1.09256849858e-10)
(-88.321999999 0 -2.15886135241e-10)
(-88.322 0 4.06813501538e-10)
(-88.3220000005 0 6.19409051518e-10)
(-88.322 0 -7.48199258537e-12)
(-88.3219999999 0 4.29525239804e-10)
(-88.322 0 3.27669311675e-10)
(-88.322 0 -4.31866930427e-10)
(-88.322 0 1.72249340041e-11)
(-88.3219999999 0 9.25075137795e-11)
(-88.3220000003 0 -4.51626517744e-11)
(-88.3220000003 0 1.84269138371e-10)
(-88.3219999999 0 1.82290649274e-10)
(-88.3219999998 0 -5.21683784203e-10)
(-88.3219999998 0 5.00409269355e-10)
(-88.3219999997 0 4.06065813536e-10)
(-88.3219999998 0 5.30449342223e-10)
(-88.3220000003 0 1.16881655991e-10)
(-88.3220000003 0 -6.90083987112e-10)
(-88.322 0 -2.49729011172e-10)
(-88.3219999998 0 8.9484626425e-10)
(-88.3219999998 0 1.08622539561e-09)
(-88.3220000004 0 -6.30476220581e-10)
(-88.3219999999 0 -6.19577380511e-10)
(-88.3219999998 0 -4.49246561788e-10)
(-88.3219999998 0 -7.53301939163e-11)
(-88.3219999991 0 1.15457163538e-10)
(-88.3219999996 0 -4.50588280939e-10)
(-88.3220000013 0 5.23287263418e-10)
(-88.3220000001 0 7.15268013745e-10)
(-88.3219999991 0 -1.17016976835e-10)
(-88.322000002 0 -3.61703799464e-10)
(-88.3220000007 0 9.56121121741e-11)
(-88.3219999995 0 1.6622822428e-10)
(-88.3220000002 0 1.18753163589e-10)
(-88.3219999989 0 -1.22787365644e-10)
(-88.3220000003 0 -6.73919573489e-12)
(-88.3220000001 0 -5.88120772805e-11)
(-88.3219999999 0 4.51620482491e-12)
(-88.3220000003 0 5.71736182527e-11)
(-88.3219999996 0 4.58221577063e-11)
(-88.322 0 -2.2370960611e-11)
(-88.322 0 1.58578067558e-11)
(-88.322 0 9.37774535951e-12)
(-88.322 0 8.18084791749e-12)
(-88.322 0 1.17683007408e-11)
(-88.3220000001 0 -7.80946079303e-11)
(-88.3219999998 0 2.93641595054e-10)
(-88.3220000001 0 -2.07769588929e-10)
(-88.3220000002 0 -7.50991215293e-11)
(-88.3219999995 0 -1.79982372066e-11)
(-88.3220000002 0 1.01418601758e-10)
(-88.3220000001 0 2.76419300791e-10)
(-88.3219999998 0 -4.23921669387e-10)
(-88.3220000012 0 -4.63899632235e-10)
(-88.3220000002 0 3.01632093114e-10)
(-88.3219999994 0 3.47292400173e-10)
(-88.3220000007 0 4.70267748904e-11)
(-88.3219999983 0 4.02287576229e-10)
(-88.3219999979 0 -8.95776247673e-11)
(-88.3220000002 0 4.66445933474e-10)
(-88.3220000007 0 -2.56381639223e-10)
(-88.3220000009 0 -7.71950979263e-11)
(-88.3220000009 0 -2.50857165265e-10)
(-88.3220000004 0 4.82591535029e-10)
(-88.321999999 0 2.16115256943e-11)
(-88.3219999984 0 -2.80767984335e-10)
(-88.3220000013 0 4.90697168984e-11)
(-88.3220000004 0 2.9535827168e-11)
(-88.3219999989 0 5.06975260658e-11)
(-88.3220000018 0 -8.71180874e-11)
(-88.3220000007 0 6.17358661139e-11)
(-88.321999999 0 -1.7169020553e-10)
(-88.3220000002 0 -1.69515525815e-10)
(-88.3219999998 0 4.0717057193e-10)
(-88.3219999997 0 -3.78681351504e-10)
(-88.3220000012 0 -3.32124835007e-10)
(-88.3219999993 0 -6.03184472548e-11)
(-88.3219999984 0 -1.21073673239e-10)
(-88.3219999999 0 8.1111079022e-12)
(-88.3220000008 0 -2.48304172166e-10)
(-88.322000002 0 -1.22614744507e-10)
(-88.322 0 3.59753322076e-11)
(-88.3219999983 0 -2.13448646966e-12)
(-88.3219999985 0 -9.71150926599e-13)
(-88.3220000012 0 -3.26474980298e-11)
(-88.3220000019 0 1.54622927228e-12)
(-88.322 0 -9.48720372152e-12)
(-88.321999999 0 -7.69355396897e-11)
(-88.321999999 0 4.74112778323e-11)
(-88.3220000007 0 -3.21657141622e-10)
(-88.3219999996 0 -3.50423436351e-10)
(-88.3219999989 0 -5.78609687019e-10)
(-88.3220000008 0 2.9914565408e-10)
(-88.3220000018 0 -4.46393230915e-10)
(-88.322 0 -3.74475883375e-10)
(-88.321999999 0 8.06687280165e-10)
(-88.3219999999 0 1.98247828348e-10)
(-88.3220000005 0 -1.20982438445e-10)
(-88.3220000004 0 -4.53494204141e-10)
(-88.3219999997 0 -1.39971885563e-10)
(-88.3219999999 0 6.20609468584e-10)
(-88.322 0 -1.71371215196e-10)
(-88.3219999999 0 -8.60423097021e-11)
(-88.3220000001 0 4.82548564507e-11)
(-88.322 0 8.48039556018e-11)
(-88.322 0 -1.94321036772e-10)
(-88.322 0 6.41910446243e-11)
(-88.322 0 3.51289762813e-11)
(-88.3220000001 0 9.79004979852e-12)
(-88.3219999996 0 -9.97545364694e-12)
(-88.322 0 -3.77894098624e-11)
(-88.3220000004 0 3.11577725232e-11)
(-88.3219999999 0 -3.7015582739e-11)
(-88.3219999998 0 1.16516508109e-10)
(-88.3220000002 0 -4.21878412442e-11)
(-88.3220000003 0 6.3363193797e-11)
(-88.3219999998 0 -6.84222010652e-11)
(-88.322 0 4.70143848371e-11)
(-88.3220000002 0 3.23239240191e-10)
(-88.3219999998 0 1.92385213831e-11)
(-88.3219999998 0 9.42253091013e-11)
(-88.3220000001 0 4.75747581572e-10)
(-88.3219999999 0 -5.12496269205e-10)
(-88.3219999997 0 -4.70389530041e-10)
(-88.3219999997 0 5.08555958811e-11)
(-88.3220000002 0 2.52567275742e-10)
(-88.3220000005 0 -9.91982128212e-11)
(-88.322 0 9.32853477073e-11)
(-88.3220000005 0 2.08381944703e-10)
(-88.3219999998 0 -3.8180591771e-10)
(-88.3219999999 0 -6.46060954236e-10)
(-88.322 0 1.92339867379e-10)
(-88.3220000002 0 -4.37949081944e-10)
(-88.3219999999 0 -3.53876730874e-10)
(-88.3220000001 0 4.2624016023e-10)
(-88.3220000005 0 -3.15802786481e-11)
(-88.3219999986 0 -1.20005102278e-10)
(-88.3220000008 0 7.77073297505e-11)
(-88.3220000019 0 -1.74476920999e-10)
(-88.3219999992 0 -1.06777676007e-10)
(-88.3219999993 0 3.78747450041e-10)
(-88.3219999996 0 -4.98246191743e-10)
(-88.3219999999 0 -3.58055651134e-10)
(-88.322 0 -5.14925663521e-10)
(-88.3219999998 0 2.35156166031e-12)
(-88.3220000001 0 4.57448230671e-10)
(-88.322 0 2.73187688537e-11)
(-88.3219999999 0 -3.81291100908e-10)
(-88.3219999998 0 -7.04743225957e-10)
(-88.3220000003 0 2.00386679979e-10)
(-88.322 0 1.98454606723e-10)
(-88.3219999997 0 2.3377826989e-10)
(-88.3220000003 0 -2.72742330689e-10)
(-88.3219999998 0 -2.93365275488e-10)
(-88.3220000002 0 6.37051170576e-11)
(-88.322 0 -4.96803088521e-10)
(-88.322 0 -4.6896230488e-10)
(-88.3220000003 0 -9.61740607899e-11)
(-88.3219999994 0 4.13273493317e-10)
(-88.3219999997 0 -8.00228011791e-11)
(-88.3220000014 0 -9.32287152629e-11)
(-88.3220000016 0 -1.14325957296e-10)
(-88.321999999 0 -5.11065251317e-11)
(-88.3219999981 0 2.25131417137e-10)
(-88.3220000001 0 -4.78634794925e-11)
(-88.3220000013 0 8.43005007712e-11)
(-88.3219999999 0 -3.47881116836e-11)
(-88.3219999993 0 -2.33947952345e-11)
(-88.3220000005 0 4.05896598639e-11)
(-88.322 0 -7.49804745082e-12)
(-88.3219999995 0 -1.21870345971e-11)
(-88.3220000001 0 -4.0945991233e-11)
(-88.322 0 -2.36062110813e-11)
(-88.3220000002 0 4.61789519288e-11)
(-88.3219999998 0 -1.92286915794e-10)
(-88.3220000001 0 5.09013027159e-11)
(-88.322 0 1.15752762512e-10)
(-88.3219999995 0 -1.60657971682e-10)
(-88.3220000002 0 -1.83779166506e-10)
(-88.322 0 1.13794814448e-10)
(-88.3219999998 0 5.82939510913e-10)
(-88.3220000005 0 5.78582511255e-10)
(-88.3220000003 0 -2.85631563249e-10)
(-88.3219999999 0 -3.55607112249e-10)
(-88.3219999998 0 -2.29575481679e-10)
(-88.3219999996 0 -4.61680119547e-10)
(-88.3219999998 0 1.68523734774e-10)
(-88.3219999991 0 -4.32381873223e-10)
(-88.3219999993 0 3.54422120835e-10)
(-88.3220000012 0 -1.78779466377e-10)
(-88.3220000004 0 1.44149994767e-10)
(-88.3220000003 0 -2.90901003653e-10)
(-88.3220000001 0 1.589453147e-11)
(-88.322 0 -4.63123777929e-11)
(-88.322 0 1.91899207505e-12)
(-88.322 0 -7.45501897379e-11)
(-88.322 0 8.91151025792e-11)
(-88.322 0 4.10228770108e-11)
(-88.322 0 -9.53706714642e-11)
(-88.3220000001 0 1.65982998126e-10)
(-88.322 0 1.58663208102e-10)
(-88.322 0 -4.741498303e-10)
(-88.322 0 5.55768784171e-10)
(-88.322 0 5.39114458153e-10)
(-88.322 0 7.75098118294e-11)
(-88.322 0 1.20976341372e-10)
(-88.322 0 -3.57683376967e-11)
(-88.322 0 8.73481717891e-11)
(-88.322 0 -1.44781424778e-11)
(-88.322 0 1.77157108509e-12)
(-88.322 0 1.09031682511e-11)
(-88.322 0 -2.44667811867e-11)
(-88.322 0 1.4853875201e-11)
(-88.322 0 -1.44319340225e-11)
(-88.322 0 1.60429285262e-10)
(-88.322 0 -6.30975290773e-11)
(-88.322 0 -4.4113719662e-11)
(-88.322 0 8.25519729872e-11)
(-88.322 0 -2.62061824143e-11)
(-88.322 0 4.24993055765e-11)
(-88.322 0 -1.95503167509e-10)
(-88.322 0 4.71139120363e-11)
(-88.322 0 -9.04667412259e-11)
(-88.322 0 -2.75244324854e-11)
(-88.322 0 2.01685416347e-10)
(-88.3220000003 0 -1.66092592077e-10)
(-88.3219999999 0 1.64502825237e-10)
(-88.3219999997 0 -1.94950960835e-10)
(-88.3220000001 0 -7.35080984072e-10)
(-88.322 0 1.70454477809e-10)
(-88.322 0 3.1184640118e-10)
(-88.322 0 -2.77366648881e-11)
(-88.322 0 -8.48333386478e-11)
(-88.322 0 1.99272663954e-10)
(-88.322 0 -9.19789649413e-11)
(-88.322 0 -3.3130154478e-11)
(-88.322 0 -2.51648857348e-11)
(-88.322 0 -6.18609400116e-11)
(-88.322 0 1.46754375348e-10)
(-88.3219999998 0 -1.37793436027e-11)
(-88.3220000003 0 2.0231231949e-10)
(-88.3220000004 0 -5.42002711821e-11)
(-88.3219999996 0 -7.7443523501e-11)
(-88.3219999988 0 -1.71756048412e-10)
(-88.3219999989 0 6.8166492161e-11)
(-88.3220000018 0 1.31088161634e-10)
(-88.3220000021 0 -2.42235264522e-10)
(-88.3219999996 0 -1.06161581274e-10)
(-88.322 0 -4.85693702137e-11)
(-88.3219999993 0 -1.13050465501e-10)
(-88.3219999998 0 5.29541406011e-11)
(-88.3219999993 0 5.84515435345e-11)
(-88.3219999992 0 -1.01870212934e-09)
(-88.3220000006 0 -8.59620080024e-10)
(-88.322 0 -2.37694603824e-10)
(-88.3219999996 0 1.35694923505e-10)
(-88.3220000001 0 1.22658282828e-10)
(-88.3219999999 0 -1.64137710758e-10)
(-88.322 0 -5.28481079558e-11)
(-88.3219999997 0 7.39626636586e-11)
(-88.3219999999 0 5.88896742283e-11)
(-88.3220000003 0 -1.32407124568e-10)
(-88.322 0 -1.46320534351e-10)
(-88.322 0 -3.45521979212e-11)
(-88.322 0 -7.02729084923e-11)
(-88.322 0 9.78393061243e-12)
(-88.3219999999 0 -2.88525728812e-11)
(-88.3220000002 0 -1.00621260576e-11)
(-88.3220000001 0 -2.35799478492e-11)
(-88.3219999998 0 -3.22520927707e-11)
(-88.322 0 -4.13670734182e-11)
(-88.322 0 -3.68939233605e-11)
(-88.322 0 -4.88059750099e-12)
(-88.322 0 5.01606554657e-11)
(-88.322 0 -1.69235820521e-10)
(-88.3219999999 0 -7.17973928804e-11)
(-88.3219999998 0 5.05040341216e-10)
(-88.322 0 3.50362414332e-10)
(-88.3220000001 0 -4.66778926177e-10)
(-88.3220000001 0 -3.52000459718e-10)
(-88.322 0 -1.11603203468e-10)
(-88.3219999998 0 6.97745602913e-11)
(-88.3220000002 0 -1.6866862489e-10)
(-88.3220000003 0 1.28774271378e-10)
(-88.322 0 -1.5014245545e-10)
(-88.3220000001 0 -4.04940260429e-10)
(-88.3219999997 0 -3.1616599883e-10)
(-88.321999999 0 2.57298087457e-10)
(-88.3220000015 0 -4.25697914071e-10)
(-88.3220000016 0 -4.64165948748e-10)
(-88.3219999991 0 -4.11496055876e-10)
(-88.3219999999 0 4.4566896758e-10)
(-88.3219999994 0 3.3614190406e-10)
(-88.3219999991 0 -3.7196552304e-10)
(-88.3220000003 0 -2.44154988938e-10)
(-88.322 0 5.26455981914e-10)
(-88.322 0 1.17618336479e-10)
(-88.322 0 -3.48812086751e-10)
(-88.322 0 -5.62389350293e-10)
(-88.322 0 2.39188004604e-10)
(-88.3220000001 0 -2.40308125513e-10)
(-88.3219999999 0 -8.84492542679e-11)
(-88.3219999997 0 -5.13193479756e-10)
(-88.322 0 4.23883005093e-10)
(-88.3220000001 0 -1.26891619168e-10)
(-88.322 0 6.52581586197e-11)
(-88.3220000006 0 2.83195889221e-10)
(-88.3219999998 0 -4.04840026482e-10)
(-88.3219999993 0 -9.45922990816e-10)
(-88.3220000011 0 -1.13297833052e-09)
(-88.3220000007 0 -4.19566961503e-10)
(-88.3219999995 0 9.97830606821e-10)
(-88.3219999998 0 5.76354150154e-10)
(-88.3219999993 0 -7.57179441704e-11)
(-88.3219999994 0 -7.00256057061e-10)
(-88.3220000013 0 7.46963900805e-10)
(-88.3220000011 0 -3.1731573341e-11)
(-88.3219999996 0 -1.81215594225e-10)
(-88.3219999994 0 -3.04361630608e-11)
(-88.322 0 1.07543997124e-10)
(-88.3220000007 0 5.35544079903e-11)
(-88.3220000004 0 2.47135276079e-10)
(-88.3219999996 0 -2.27477506611e-10)
(-88.3219999998 0 1.82775410439e-10)
(-88.3220000005 0 -2.66510580824e-10)
(-88.3220000004 0 2.23244917573e-10)
(-88.3219999998 0 2.6123710602e-10)
(-88.322 0 -2.19655081324e-10)
(-88.3219999998 0 -4.14979761437e-10)
(-88.322 0 -1.36575280172e-10)
(-88.322 0 -4.65461260625e-10)
(-88.322 0 -4.47577467122e-10)
(-88.322 0 -1.51305140326e-10)
(-88.322 0 7.47945921868e-11)
(-88.322 0 3.78109960084e-11)
(-88.322 0 1.00898939534e-10)
(-88.3219999999 0 -3.52576229568e-10)
(-88.3220000004 0 -7.14705414369e-10)
(-88.3220000002 0 3.26158362854e-10)
(-88.3219999986 0 3.20497368799e-10)
(-88.3219999992 0 7.65355848808e-10)
(-88.322000002 0 -4.72061700578e-10)
(-88.3220000014 0 -4.49656698185e-10)
(-88.3219999993 0 3.03357025447e-10)
(-88.3219999992 0 2.91646346603e-10)
(-88.3220000001 0 2.88477471062e-10)
(-88.322 0 1.04031322493e-10)
(-88.3220000001 0 3.20240368158e-10)
(-88.322000001 0 1.03548161696e-10)
(-88.3220000002 0 3.80987879204e-11)
(-88.3219999987 0 9.60013352082e-11)
(-88.3220000002 0 -1.37408128102e-10)
(-88.3220000014 0 -3.89379790959e-10)
(-88.3220000004 0 5.37766551029e-10)
(-88.321999998 0 7.88608815307e-10)
(-88.3219999981 0 4.96584929638e-10)
(-88.3220000016 0 7.38273130341e-10)
(-88.3220000011 0 -5.01314294832e-10)
(-88.3219999983 0 -3.95872175506e-11)
(-88.3219999993 0 2.61374419702e-11)
(-88.3220000018 0 -6.33317575983e-11)
(-88.3220000013 0 5.78961233282e-11)
(-88.3219999988 0 -9.7135741808e-11)
(-88.3219999994 0 4.54009537621e-11)
(-88.3220000006 0 -1.18072120253e-10)
(-88.3220000005 0 -2.96569718843e-10)
(-88.3219999989 0 2.3748032506e-10)
(-88.321999999 0 3.33471131414e-10)
(-88.3220000011 0 4.35112905718e-10)
(-88.3219999995 0 -3.39556017613e-10)
(-88.3220000004 0 -3.43661198161e-10)
(-88.3220000011 0 7.02568718155e-10)
(-88.3220000003 0 1.02848455274e-10)
(-88.3220000008 0 1.13882541192e-10)
(-88.321999998 0 3.51225808416e-10)
(-88.3219999976 0 5.47023574663e-10)
(-88.3220000021 0 6.48662512575e-10)
(-88.3220000017 0 -2.40240068575e-10)
(-88.3219999981 0 -3.87148383533e-10)
(-88.321999998 0 -1.89727173837e-10)
(-88.3220000011 0 4.41530447009e-10)
(-88.3220000006 0 4.03066992878e-10)
(-88.3219999994 0 2.95436259453e-10)
(-88.322 0 -1.87086539428e-10)
(-88.3219999998 0 -2.13882988361e-10)
(-88.3220000004 0 1.34639470403e-10)
(-88.322 0 -2.56795440808e-11)
(-88.3219999999 0 -6.64976600197e-11)
(-88.3219999999 0 -1.13697439484e-10)
(-88.3219999992 0 1.27595276827e-10)
(-88.3220000008 0 1.03671835083e-10)
(-88.3220000014 0 3.87747961394e-11)
(-88.3219999998 0 -3.56483435175e-11)
(-88.322 0 -3.16655605417e-10)
(-88.3220000005 0 -2.82457244876e-11)
(-88.3219999996 0 -8.52389815371e-11)
(-88.3219999991 0 -1.0614316453e-10)
(-88.3219999995 0 7.68474041017e-11)
(-88.322 0 -1.0815003315e-10)
(-88.3220000007 0 -1.07542168059e-11)
(-88.3220000017 0 -4.26276511574e-13)
(-88.3219999988 0 -6.88094703051e-11)
(-88.3219999979 0 1.93205572247e-10)
(-88.321999999 0 3.03851058735e-12)
(-88.3220000015 0 -3.55773892438e-10)
(-88.3220000025 0 -2.30033627604e-10)
(-88.3219999986 0 3.27604536772e-10)
(-88.3219999986 0 4.61768668494e-10)
(-88.322 0 1.13447880723e-10)
(-88.3220000001 0 -4.7786981292e-11)
(-88.3220000001 0 1.72848134562e-10)
(-88.3220000003 0 -9.33202798609e-11)
(-88.3220000005 0 1.61416292137e-10)
(-88.3220000001 0 4.07823964698e-10)
(-88.322 0 3.14850398097e-10)
(-88.3219999999 0 -2.50713057348e-10)
(-88.3220000003 0 5.21783398161e-10)
(-88.3219999994 0 2.76314197711e-10)
(-88.321999999 0 6.2783495321e-10)
(-88.322 0 -5.0436989467e-10)
(-88.3220000014 0 -3.35812065985e-10)
(-88.3220000006 0 5.19345727531e-10)
(-88.3219999993 0 2.10027692613e-10)
(-88.322 0 -5.33148354283e-10)
(-88.322 0 -1.10131232747e-10)
(-88.3220000002 0 3.32577697876e-10)
(-88.322 0 5.87719611378e-10)
(-88.322 0 -3.9834962141e-10)
(-88.3220000008 0 2.31330851767e-10)
(-88.3219999992 0 5.89287458424e-11)
(-88.3219999984 0 5.23404373486e-10)
(-88.3219999996 0 -4.50659715511e-10)
(-88.3220000016 0 2.55928651776e-11)
(-88.3220000016 0 1.47403208367e-10)
(-88.3219999984 0 -5.46719888983e-10)
(-88.321999999 0 1.14251795099e-10)
(-88.3220000004 0 7.59191770468e-10)
(-88.3220000006 0 7.31406308666e-10)
(-88.3219999999 0 4.53255647532e-10)
(-88.3219999991 0 -4.300097519e-10)
(-88.3220000013 0 -5.94739200053e-10)
(-88.3220000012 0 5.03060707173e-10)
(-88.3219999995 0 4.83566186978e-10)
(-88.3219999997 0 -3.95276888754e-10)
(-88.322 0 -5.13846285747e-10)
(-88.3219999999 0 1.31017764459e-10)
(-88.322 0 -1.73045239139e-10)
(-88.322 0 -3.9243214443e-11)
(-88.322 0 1.18877403429e-10)
(-88.322 0 -2.08754476314e-10)
(-88.322 0 1.82310360483e-10)
(-88.322 0 -1.10927106329e-10)
(-88.322 0 1.5259795633e-10)
(-88.322 0 -2.19990363453e-10)
(-88.322 0 -1.34293120726e-10)
(-88.3220000002 0 -2.08572403617e-10)
(-88.3220000005 0 1.70625110718e-11)
(-88.3219999999 0 3.51796723999e-10)
(-88.3219999996 0 1.76857835313e-10)
(-88.3220000002 0 -1.3530211158e-10)
(-88.3219999997 0 -2.78979419315e-10)
(-88.322 0 1.36131148758e-10)
(-88.3220000001 0 1.88887473438e-10)
(-88.3219999997 0 -2.23572545733e-10)
(-88.322 0 3.94528548108e-10)
(-88.322 0 7.09755096707e-10)
(-88.3220000001 0 -3.05386093242e-10)
(-88.3219999997 0 -3.3104672865e-10)
(-88.3219999997 0 -7.87555010014e-10)
(-88.3220000005 0 3.89125050574e-10)
(-88.322 0 4.12513784397e-10)
(-88.3219999998 0 -3.28807120938e-10)
(-88.3220000002 0 -2.97139358781e-10)
(-88.322 0 -3.31513121153e-10)
(-88.322 0 -2.13894651341e-10)
(-88.322 0 -2.24931428378e-10)
(-88.322 0 -1.10238649812e-10)
(-88.322 0 1.12129074269e-10)
(-88.322 0 1.20240412139e-10)
(-88.3219999997 0 -1.48382027189e-10)
(-88.3220000003 0 3.44584038739e-10)
(-88.3220000003 0 -3.03860170234e-10)
(-88.3219999996 0 -6.85381895448e-10)
(-88.322 0 -5.43050325286e-10)
(-88.3219999997 0 -1.30392416518e-10)
(-88.3220000002 0 -6.42186724218e-11)
(-88.3220000005 0 -4.62793826282e-10)
(-88.3219999999 0 2.33319725191e-10)
(-88.322 0 3.49621501546e-10)
(-88.322 0 -3.76050743027e-10)
(-88.3220000003 0 5.67038756847e-11)
(-88.3220000001 0 -5.10525938521e-10)
(-88.3219999997 0 -4.48213962968e-10)
(-88.322 0 1.34429870401e-10)
(-88.3219999999 0 -7.82405237857e-10)
(-88.322 0 -4.68636072808e-10)
(-88.3219999999 0 -4.73521556097e-10)
(-88.3220000007 0 2.23121125343e-10)
(-88.3220000006 0 2.93450469195e-10)
(-88.3219999986 0 -5.56200191119e-10)
(-88.3219999991 0 -1.12537293291e-10)
(-88.3220000014 0 -4.83129100927e-10)
(-88.3220000003 0 2.65238928762e-10)
(-88.3219999998 0 -4.52588724941e-10)
(-88.3220000003 0 -8.79386444815e-10)
(-88.3219999997 0 -1.98252207248e-10)
(-88.3219999999 0 8.72861533036e-11)