/*--------------------------------*- C++ -*----------------------------------*\
  =========                 |
  \\      /  F ield         | OpenFOAM: The Open Source CFD Toolbox
   \\    /   O peration     | Website:  https://openfoam.org
    \\  /    A nd           | Version:  6
     \\/     M anipulation  |
\*---------------------------------------------------------------------------*/
FoamFile
{
    version     2.0;
    format      ascii;
    class       volVectorField;
    location    "7e-06";
    object      U;
}
// * * * * * * * * * * * * * * * * * * * * * * * * * * * * * * * * * * * * * //

dimensions      [0 1 -1 0 0 0 0];

internalField   nonuniform List<vector> 
8192
(
(-88.322 0 -4.66370833619e-12)
(-88.322 0 -2.2155750007e-13)
(-88.322 0 -3.71531466189e-12)
(-88.322 0 -6.52060034545e-12)
(-88.322 0 1.32431515216e-12)
(-88.322 0 -8.01278587179e-13)
(-88.322 0 -2.72437960273e-13)
(-88.322 0 5.19200029515e-13)
(-88.322 0 -3.13014001673e-12)
(-88.322 0 -7.90340495004e-12)
(-88.322 0 -8.60832395214e-12)
(-88.322 0 2.58602767712e-12)
(-88.322 0 -5.39312440715e-12)
(-88.322 0 -6.4909270165e-12)
(-88.322 0 -1.42090080048e-11)
(-88.322 0 3.93260382454e-12)
(-88.322 0 -1.33916249641e-12)
(-88.322 0 4.11164355759e-12)
(-88.322 0 -8.4854156508e-12)
(-88.322 0 -9.95683591601e-12)
(-88.322 0 5.20424017284e-12)
(-88.322 0 4.68633696062e-12)
(-88.322 0 3.15284965696e-13)
(-88.322 0 -2.36906615326e-12)
(-88.322 0 1.845780707e-12)
(-88.322 0 1.26346654987e-12)
(-88.322 0 3.24879089567e-12)
(-88.322 0 3.71171063517e-12)
(-88.322 0 1.25399824042e-12)
(-88.322 0 -2.69899013688e-12)
(-88.322 0 5.8770050313e-12)
(-88.322 0 -5.20823356467e-13)
(-88.322 0 -2.99461715141e-12)
(-88.322 0 9.05037445554e-12)
(-88.322 0 -9.30955236012e-12)
(-88.322 0 -2.95917212922e-12)
(-88.322 0 1.60093262417e-12)
(-88.322 0 -1.31839363144e-11)
(-88.322 0 6.80809275307e-12)
(-88.322 0 5.66606220007e-14)
(-88.322 0 3.81234279195e-12)
(-88.322 0 -4.20406112671e-13)
(-88.322 0 -2.66238529971e-12)
(-88.322 0 -6.9634177231e-13)
(-88.322 0 -5.20767793369e-12)
(-88.322 0 -1.06221343362e-12)
(-88.322 0 -1.10707002597e-13)
(-88.322 0 -8.62257416952e-14)
(-88.322 0 1.47253529097e-12)
(-88.322 0 -2.84191959609e-12)
(-88.322 0 -4.9025904196e-13)
(-88.322 0 -3.65963996731e-12)
(-88.322 0 -4.81180662198e-13)
(-88.322 0 5.95853242142e-12)
(-88.322 0 1.38462346096e-12)
(-88.322 0 -8.77371115926e-12)
(-88.322 0 3.61632709754e-12)
(-88.322 0 -5.27412904642e-12)
(-88.322 0 -1.24329681599e-12)
(-88.322 0 3.40529807528e-15)
(-88.322 0 5.83611388456e-12)
(-88.322 0 1.16503003406e-11)
(-88.322 0 1.21444376021e-11)
(-88.322 0 4.75541539396e-12)
(-88.322 0 6.75474062219e-13)
(-88.322 0 7.01177126206e-14)
(-88.322 0 2.27995931674e-12)
(-88.322 0 -2.04040116075e-13)
(-88.322 0 -8.3643304401e-14)
(-88.322 0 -2.42199779038e-13)
(-88.322 0 -5.70629722237e-14)
(-88.322 0 8.60743428391e-15)
(-88.322 0 -9.27364570785e-14)
(-88.322 0 -2.85889612202e-12)
(-88.322 0 -1.57492448369e-13)
(-88.322 0 -5.56653518907e-12)
(-88.322 0 -2.13394288284e-14)
(-88.322 0 -1.39672737137e-14)
(-88.322 0 6.21004421811e-14)
(-88.322 0 1.70344244669e-12)
(-88.322 0 2.77361010709e-14)
(-88.322 0 4.40605298281e-13)
(-88.322 0 -3.84878305697e-12)
(-88.322 0 -1.07344141367e-13)
(-88.322 0 1.35752551218e-13)
(-88.322 0 5.20567418065e-14)
(-88.322 0 4.02241072787e-14)
(-88.322 0 2.92424114801e-13)
(-88.322 0 3.73410609219e-12)
(-88.322 0 -1.1037959716e-11)
(-88.322 0 6.96957840508e-12)
(-88.322 0 2.73368503373e-12)
(-88.322 0 7.56337591611e-13)
(-88.322 0 -8.32591145132e-14)
(-88.322 0 -2.51717394264e-13)
(-88.322 0 -2.60342330218e-13)
(-88.322 0 6.40103448673e-13)
(-88.322 0 -7.70596258722e-12)
(-88.322 0 2.13295836685e-12)
(-88.322 0 -2.46778347677e-12)
(-88.322 0 -4.47081207924e-12)
(-88.322 0 1.49080374126e-12)
(-88.322 0 -4.39271699246e-12)
(-88.322 0 -8.31349091123e-14)
(-88.322 0 2.13612268763e-12)
(-88.322 0 -5.88538917815e-13)
(-88.322 0 -8.92154221524e-14)
(-88.322 0 1.08569324143e-12)
(-88.322 0 -6.31901121595e-12)
(-88.322 0 -8.68542821856e-12)
(-88.322 0 -7.75444127253e-12)
(-88.322 0 -9.12007702101e-13)
(-88.322 0 -1.07124234764e-11)
(-88.322 0 -1.81050863142e-12)
(-88.322 0 2.17747828729e-12)
(-88.322 0 -5.74934568519e-13)
(-88.322 0 -1.32770680646e-13)
(-88.322 0 -2.91181496222e-13)
(-88.322 0 -3.5652478146e-12)
(-88.322 0 1.89830708637e-11)
(-88.322 0 -3.93147938928e-12)
(-88.322 0 -5.85235148245e-12)
(-88.322 0 -1.26670657007e-11)
(-88.322 0 -1.43705583e-12)
(-88.322 0 -1.71602323057e-12)
(-88.322 0 -2.26596167857e-11)
(-88.322 0 -1.70721337912e-11)
(-88.322 0 -6.08855394893e-12)
(-88.322 0 1.53598032757e-12)
(-88.322 0 1.18681243393e-12)
(-88.322 0 -1.42913444237e-12)
(-88.322 0 6.7590035794e-12)
(-88.322 0 1.09792907303e-12)
(-88.322 0 2.80815388737e-12)
(-88.322 0 4.8556887665e-13)
(-88.322 0 5.93623811652e-13)
(-88.322 0 -1.65975959537e-13)
(-88.322 0 7.48566106722e-12)
(-88.322 0 8.24505241799e-12)
(-88.322 0 -1.24484430237e-12)
(-88.322 0 3.42235533472e-12)
(-88.322 0 1.05865052642e-12)
(-88.322 0 1.29887661577e-11)
(-88.322 0 -3.70646032232e-12)
(-88.322 0 8.34864668539e-13)
(-88.322 0 -8.78396309187e-13)
(-88.322 0 8.40006621585e-12)
(-88.322 0 7.7488425259e-12)
(-88.322 0 -5.15827645871e-12)
(-88.322 0 -6.59623174282e-13)
(-88.322 0 3.02764938959e-12)
(-88.322 0 2.40971528766e-12)
(-88.322 0 1.74271807636e-12)
(-88.322 0 -1.19747208018e-12)
(-88.322 0 1.93502793327e-13)
(-88.322 0 9.1659229282e-13)
(-88.322 0 1.05708017495e-13)
(-88.322 0 -6.97845579792e-12)
(-88.322 0 2.56866037465e-12)
(-88.322 0 6.49608925643e-13)
(-88.322 0 1.3372260213e-12)
(-88.322 0 5.78059774005e-12)
(-88.322 0 1.88954976816e-11)
(-88.322 0 9.95332494925e-13)
(-88.322 0 -4.17129602424e-12)
(-88.322 0 5.34391102808e-12)
(-88.322 0 1.30676639689e-11)
(-88.322 0 -1.12525086441e-11)
(-88.322 0 -8.36119679429e-12)
(-88.322 0 6.59285090945e-14)
(-88.322 0 -6.78984265131e-12)
(-88.322 0 -6.3576510457e-13)
(-88.322 0 -5.61042354387e-12)
(-88.322 0 -5.09587378339e-13)
(-88.322 0 -4.28284988184e-12)
(-88.322 0 -1.29103209434e-11)
(-88.322 0 1.95467111152e-12)
(-88.322 0 5.07636788974e-13)
(-88.322 0 -3.45800727182e-13)
(-88.322 0 4.3028560786e-12)
(-88.322 0 -1.28041351115e-11)
(-88.322 0 2.76742448994e-12)
(-88.322 0 -3.99520315841e-12)
(-88.322 0 -9.54030171852e-12)
(-88.322 0 -5.7873670285e-12)
(-88.322 0 -5.56750662586e-12)
(-88.322 0 -1.15919987959e-12)
(-88.322 0 -3.53980687878e-13)
(-88.322 0 1.77080581045e-13)
(-88.322 0 3.6680364406e-12)
(-88.322 0 2.38003236102e-13)
(-88.322 0 2.13895788723e-12)
(-88.322 0 3.86002656203e-12)
(-88.322 0 -6.70837228276e-13)
(-88.322 0 9.23372402191e-13)
(-88.322 0 4.16591576619e-12)
(-88.322 0 -3.77287266791e-12)
(-88.322 0 -4.96892174939e-14)
(-88.322 0 5.84951922293e-14)
(-88.322 0 2.48082617301e-12)
(-88.322 0 1.59993775773e-13)
(-88.322 0 5.25750029561e-12)
(-88.322 0 -4.43186512341e-14)
(-88.322 0 3.10380997725e-12)
(-88.322 0 3.23243304436e-12)
(-88.322 0 5.30554614392e-12)
(-88.322 0 1.12265780379e-13)
(-88.322 0 -3.76454695406e-12)
(-88.322 0 3.42106369265e-13)
(-88.322 0 -2.9824321311e-12)
(-88.322 0 3.87457402618e-12)
(-88.322 0 -8.35969155657e-14)
(-88.322 0 -1.09788324877e-12)
(-88.322 0 -9.98409589638e-12)
(-88.322 0 7.08980424614e-13)
(-88.322 0 -1.19326481041e-13)
(-88.322 0 -9.63087643706e-13)
(-88.322 0 1.34539412602e-11)
(-88.322 0 -4.28465669404e-12)
(-88.322 0 -4.32525915732e-12)
(-88.322 0 -5.36493937883e-13)
(-88.322 0 5.15078386199e-13)
(-88.322 0 2.95565636361e-12)
(-88.322 0 -1.412917169e-12)
(-88.322 0 -6.75393214115e-14)
(-88.322 0 -1.33572661746e-12)
(-88.322 0 4.37047622762e-12)
(-88.322 0 5.55375934626e-12)
(-88.322 0 1.8922815154e-13)
(-88.322 0 1.13145413378e-11)
(-88.322 0 -2.51784879198e-12)
(-88.322 0 1.596657606e-13)
(-88.322 0 -1.77586699235e-12)
(-88.322 0 -1.26037647004e-12)
(-88.322 0 2.04303864362e-13)
(-88.322 0 -2.80370168832e-13)
(-88.322 0 1.13553868485e-11)
(-88.322 0 9.36461421396e-12)
(-88.322 0 7.71878886496e-12)
(-88.322 0 9.56050654983e-13)
(-88.322 0 1.11250396521e-11)
(-88.322 0 2.4520104259e-12)
(-88.322 0 -1.68436957824e-12)
(-88.322 0 6.444112119e-13)
(-88.322 0 2.08863896286e-13)
(-88.322 0 4.25980996816e-12)
(-88.322 0 1.02544715765e-11)
(-88.322 0 -1.75577596894e-11)
(-88.322 0 3.11723940394e-12)
(-88.322 0 1.1715831957e-11)
(-88.322 0 8.51669442865e-12)
(-88.322 0 5.68639161316e-12)
(-88.322 0 -1.05129869582e-11)
(-88.322 0 2.17688935609e-11)
(-88.322 0 4.44267654489e-12)
(-88.322 0 4.88366245811e-12)
(-88.322 0 -5.08535432153e-12)
(-88.322 0 -1.74714016501e-12)
(-88.322 0 2.20181059581e-12)
(-88.322 0 -2.49272712051e-13)
(-88.322 0 -2.4353872267e-12)
(-88.322 0 -1.06850518993e-14)
(-88.322 0 -8.41274231796e-13)
(-88.322 0 4.18740697026e-12)
(-88.322 0 2.4783908062e-12)
(-88.322 0 4.12268494726e-13)
(-88.322 0 1.37966361937e-12)
(-88.322 0 -8.25144466776e-12)
(-88.322 0 -1.04571656636e-11)
(-88.322 0 -1.09330261004e-12)
(-88.322 0 1.02223397334e-13)
(-88.322 0 5.92987635353e-14)
(-88.322 0 1.9741047402e-12)
(-88.322 0 7.41129675313e-13)
(-88.322 0 -2.59971219535e-13)
(-88.322 0 1.76447114681e-12)
(-88.322 0 -4.2960013519e-15)
(-88.322 0 -4.83204551568e-13)
(-88.322 0 1.0897384796e-12)
(-88.322 0 -4.66812054487e-12)
(-88.322 0 -1.66466570871e-13)
(-88.322 0 8.19873264837e-14)
(-88.322 0 2.99652116375e-13)
(-88.322 0 1.24162982896e-12)
(-88.322 0 2.36674689968e-12)
(-88.322 0 3.11164705577e-12)
(-88.322 0 3.85972894021e-13)
(-88.322 0 3.35309586261e-12)
(-88.322 0 -4.77338829186e-12)
(-88.322 0 -6.53540233591e-12)
(-88.322 0 -2.55951846194e-11)
(-88.322 0 -5.53587950832e-12)
(-88.322 0 5.0888209867e-12)
(-88.322 0 -1.45380829692e-11)
(-88.322 0 -1.18713662884e-11)
(-88.322 0 5.83291107893e-12)
(-88.322 0 2.02001171505e-12)
(-88.322 0 1.1611929058e-12)
(-88.322 0 3.87711666129e-12)
(-88.322 0 6.62368584118e-14)
(-88.322 0 1.00677604663e-13)
(-88.322 0 8.7686942961e-14)
(-88.322 0 1.86025374135e-12)
(-88.322 0 7.59022263123e-12)
(-88.322 0 -7.49230219828e-13)
(-88.322 0 -2.22823830589e-12)
(-88.322 0 -2.87036705536e-13)
(-88.322 0 2.83299722583e-13)
(-88.322 0 7.98333695942e-12)
(-88.322 0 -5.3239935629e-12)
(-88.322 0 -9.5093122828e-13)
(-88.322 0 -1.98570938254e-13)
(-88.322 0 -6.40325239999e-12)
(-88.322 0 4.87912670204e-12)
(-88.322 0 -1.23658533951e-11)
(-88.322 0 8.54614399968e-12)
(-88.322 0 1.14069703865e-12)
(-88.322 0 7.12598104515e-12)
(-88.322 0 3.76160733214e-12)
(-88.322 0 1.19085247972e-12)
(-88.322 0 -8.53008742741e-13)
(-88.322 0 -3.22416519894e-15)
(-88.322 0 7.72478742125e-13)
(-88.322 0 3.5012334801e-12)
(-88.322 0 -1.95397593765e-12)
(-88.322 0 7.80747265036e-12)
(-88.322 0 1.02272058564e-11)
(-88.322 0 -4.18154475762e-12)
(-88.322 0 3.90310391268e-13)
(-88.322 0 2.34252298861e-12)
(-88.322 0 -1.22711473415e-12)
(-88.322 0 5.17107074414e-12)
(-88.322 0 2.77452198174e-12)
(-88.322 0 -1.07610317305e-12)
(-88.322 0 1.15110125461e-11)
(-88.322 0 1.25149811743e-11)
(-88.322 0 4.68136752135e-12)
(-88.322 0 1.1643247638e-12)
(-88.322 0 -1.15059310397e-12)
(-88.322 0 1.40916174343e-12)
(-88.322 0 1.08771650036e-11)
(-88.322 0 1.18278143233e-11)
(-88.322 0 -2.71395613493e-12)
(-88.322 0 -6.56164787808e-12)
(-88.322 0 -8.08579822892e-12)
(-88.322 0 9.27349449719e-12)
(-88.322 0 1.74818941836e-12)
(-88.322 0 -1.35016671855e-12)
(-88.322 0 1.06461682694e-11)
(-88.322 0 5.63995243699e-12)
(-88.322 0 -2.20979596804e-12)
(-88.322 0 -2.38839599516e-12)
(-88.322 0 1.76545839156e-13)
(-88.322 0 1.06841485873e-13)
(-88.322 0 3.58261163555e-13)
(-88.322 0 -4.52028054986e-13)
(-88.322 0 1.82038446632e-12)
(-88.322 0 6.08347138697e-13)
(-88.322 0 1.66859605689e-14)
(-88.322 0 4.12434760592e-12)
(-88.322 0 1.19749061689e-12)
(-88.322 0 -2.06469282022e-12)
(-88.322 0 1.28202838837e-13)
(-88.322 0 1.40282849122e-13)
(-88.322 0 -1.8045012302e-13)
(-88.322 0 -2.10347492162e-14)
(-88.322 0 -5.81560456183e-13)
(-88.322 0 4.02605380401e-12)
(-88.322 0 -2.11636170244e-12)
(-88.322 0 -6.29238675322e-14)
(-88.322 0 2.11670279682e-13)
(-88.322 0 2.84036307658e-12)
(-88.322 0 7.18102539733e-12)
(-88.322 0 -5.38225511724e-12)
(-88.322 0 -3.9909347269e-12)
(-88.322 0 7.43187523568e-12)
(-88.322 0 8.87267491758e-13)
(-88.322 0 1.27566775451e-12)
(-88.322 0 5.54419139021e-12)
(-88.322 0 -3.85534674783e-12)
(-88.322 0 5.5895742559e-12)
(-88.322 0 -9.06278408061e-12)
(-88.322 0 6.55441677137e-12)
(-88.322 0 -3.99331898262e-12)
(-88.322 0 3.91528551097e-12)
(-88.322 0 8.34988027085e-13)
(-88.322 0 -2.91083976163e-12)
(-88.322 0 2.46356425694e-13)
(-88.322 0 2.39634655224e-13)
(-88.322 0 -4.9435537372e-14)
(-88.322 0 -2.43502637237e-12)
(-88.322 0 -2.98612046694e-12)
(-88.322 0 -9.58647394718e-14)
(-88.322 0 -4.24611030063e-13)
(-88.322 0 2.46037170766e-12)
(-88.322 0 -3.07360444699e-12)
(-88.322 0 -9.32897686159e-12)
(-88.322 0 7.11335622481e-13)
(-88.322 0 -6.76192080671e-14)
(-88.322 0 -4.8895526163e-15)
(-88.322 0 -1.68294046337e-12)
(-88.322 0 -1.64952074197e-12)
(-88.322 0 4.88061641409e-13)
(-88.322 0 -2.25358467623e-13)
(-88.322 0 2.65216168969e-15)
(-88.322 0 -1.62252168704e-12)
(-88.322 0 -4.9829005027e-13)
(-88.322 0 4.91256383101e-12)
(-88.322 0 -2.14193239526e-12)
(-88.322 0 -6.13698885957e-14)
(-88.322 0 -2.23347262259e-12)
(-88.322 0 -5.95821494489e-13)
(-88.322 0 -2.76402342614e-12)
(-88.322 0 2.05418748978e-12)
(-88.322 0 -7.5802007609e-12)
(-88.322 0 -3.75346491535e-12)
(-88.322 0 1.03992595061e-11)
(-88.322 0 3.55548715198e-12)
(-88.322 0 -2.65197641664e-12)
(-88.322 0 2.6266374798e-13)
(-88.322 0 -4.01768932302e-12)
(-88.322 0 2.05401707432e-11)
(-88.322 0 9.08199112853e-13)
(-88.322 0 -1.44767040475e-14)
(-88.322 0 2.90432951672e-12)
(-88.322 0 2.85351464074e-13)
(-88.322 0 6.88464891612e-15)
(-88.322 0 1.29773227942e-12)
(-88.322 0 5.14782852621e-12)
(-88.322 0 -1.40613310764e-13)
(-88.322 0 -4.89538650635e-15)
(-88.322 0 2.12532378078e-15)
(-88.322 0 3.08991609764e-13)
(-88.322 0 3.37012536402e-14)
(-88.322 0 1.2649190003e-12)
(-88.322 0 1.36548218544e-13)
(-88.322 0 -5.9797278849e-14)
(-88.322 0 -2.21277934413e-12)
(-88.322 0 6.98884877894e-13)
(-88.322 0 3.88842405753e-12)
(-88.322 0 3.3511367106e-12)
(-88.322 0 -7.11309558166e-13)
(-88.322 0 1.31171246296e-11)
(-88.322 0 -3.94541777583e-12)
(-88.322 0 -3.77689805204e-14)
(-88.322 0 5.24500212714e-13)
(-88.322 0 1.21023804302e-12)
(-88.322 0 -2.96854612088e-12)
(-88.322 0 6.72082116284e-12)
(-88.322 0 5.30052005945e-13)
(-88.322 0 -8.37245742531e-13)
(-88.322 0 -1.26582645248e-12)
(-88.322 0 5.61017494488e-12)
(-88.322 0 -7.43953475693e-12)
(-88.322 0 -1.02143474922e-11)
(-88.322 0 4.20870189215e-12)
(-88.322 0 -3.79104617635e-13)
(-88.322 0 -4.59161538132e-12)
(-88.322 0 1.13584738232e-12)
(-88.322 0 -2.20753383013e-12)
(-88.322 0 4.43527823137e-12)
(-88.322 0 -3.94685912305e-12)
(-88.322 0 -1.10990401684e-11)
(-88.322 0 -9.0125003709e-12)
(-88.322 0 -2.86368452251e-12)
(-88.322 0 1.03801370496e-12)
(-88.322 0 9.15391546517e-13)
(-88.322 0 -1.10343325419e-12)
(-88.322 0 -7.67799651797e-12)
(-88.322 0 -1.78864612849e-12)
(-88.322 0 2.61872013825e-12)
(-88.322 0 5.9648249305e-12)
(-88.322 0 5.40797052817e-12)
(-88.322 0 -9.44900886695e-12)
(-88.322 0 -4.40117415703e-12)
(-88.322 0 1.84579924372e-12)
(-88.322 0 -1.06627602291e-11)
(-88.322 0 -5.63678623431e-12)
(-88.322 0 -5.01274085027e-13)
(-88.322 0 4.25419531947e-12)
(-88.322 0 -4.41896469881e-14)
(-88.322 0 -5.63496850709e-13)
(-88.322 0 -6.33455542778e-13)
(-88.322 0 9.08902190698e-14)
(-88.322 0 4.8462102007e-12)
(-88.322 0 -4.66539762374e-13)
(-88.322 0 2.1055757807e-12)
(-88.322 0 -4.04541733192e-12)
(-88.322 0 -1.54313401723e-12)
(-88.322 0 3.94646006615e-12)
(-88.322 0 -1.13731686394e-14)
(-88.322 0 -6.28134282299e-13)
(-88.322 0 -4.97772207843e-12)
(-88.322 0 -7.99472433641e-13)
(-88.322 0 5.9796055614e-13)
(-88.322 0 -3.92791732893e-12)
(-88.322 0 1.79666706863e-12)
(-88.322 0 5.96566068229e-14)
(-88.322 0 -7.04413147375e-13)
(-88.322 0 -2.85875121572e-12)
(-88.322 0 -7.1373616473e-12)
(-88.322 0 4.46379663827e-12)
(-88.322 0 3.68323560606e-12)
(-88.322 0 -1.10117719482e-11)
(-88.322 0 -3.76480571531e-12)
(-88.322 0 -1.5114089468e-12)
(-88.322 0 -9.23681626592e-12)
(-88.322 0 3.69918564963e-12)
(-88.322 0 -5.6218251292e-12)
(-88.322 0 8.98273115915e-12)
(-88.322 0 -6.71990560109e-12)
(-88.322 0 4.05437449992e-12)
(-88.322 0 1.41508689171e-13)
(-88.322 0 9.51467005214e-14)
(-88.322 0 2.82038661384e-12)
(-88.322 0 3.85290799361e-14)
(-88.322 0 -1.96809103461e-14)
(-88.322 0 2.10995157461e-12)
(-88.322 0 2.26600841555e-12)
(-88.322 0 -1.23419340696e-12)
(-88.322 0 -7.96118040961e-14)
(-88.322 0 -2.86336751645e-12)
(-88.322 0 -3.96468852607e-12)
(-88.322 0 9.2791803758e-12)
(-88.322 0 2.00333937003e-11)
(-88.322 0 -3.76367582254e-13)
(-88.322 0 7.45288862534e-15)
(-88.322 0 -1.15746636739e-13)
(-88.322 0 -4.76875439536e-13)
(-88.322 0 2.08020842717e-12)
(-88.322 0 -6.22014061168e-14)
(-88.322 0 1.64319134765e-13)
(-88.322 0 -4.81951770728e-14)
(-88.322 0 1.68696669435e-12)
(-88.322 0 5.6965979097e-13)
(-88.322 0 1.88994419558e-13)
(-88.322 0 2.08754115648e-12)
(-88.322 0 -1.99236754479e-14)
(-88.322 0 2.20283397304e-12)
(-88.322 0 1.7046111066e-12)
(-88.322 0 -9.48472996387e-13)
(-88.322 0 3.67795819385e-12)
(-88.322 0 2.18782676137e-12)
(-88.322 0 1.73312923122e-13)
(-88.322 0 -4.39722301385e-12)
(-88.322 0 7.15889801696e-12)
(-88.322 0 4.52356559453e-12)
(-88.322 0 3.46276734972e-12)
(-88.322 0 7.21693882443e-13)
(-88.322 0 -2.66972518024e-11)
(-88.322 0 3.32774271743e-12)
(-88.322 0 5.1379775324e-12)
(-88.322 0 -1.10076029751e-12)
(-88.322 0 -1.28996426663e-12)
(-88.322 0 5.07589901435e-12)
(-88.322 0 -1.47490949603e-12)
(-88.322 0 -5.11836305312e-12)
(-88.322 0 7.46864953795e-14)
(-88.322 0 8.80101875169e-13)
(-88.322 0 5.04533902822e-12)
(-88.322 0 1.44263632221e-14)
(-88.322 0 3.69424415657e-12)
(-88.322 0 -9.79303787936e-13)
(-88.322 0 -1.37646213107e-12)
(-88.322 0 5.04335766979e-12)
(-88.322 0 2.24125051535e-12)
(-88.322 0 3.52964358366e-12)
(-88.322 0 -3.83813921868e-12)
(-88.322 0 2.71389469089e-12)
(-88.322 0 -3.93774404624e-12)
(-88.322 0 -8.83963063523e-13)
(-88.322 0 -4.29944927501e-12)
(-88.322 0 2.84356127156e-12)
(-88.322 0 -2.11048960982e-11)
(-88.322 0 -8.98848281016e-12)
(-88.322 0 -3.37586204002e-13)
(-88.322 0 -3.66085533597e-12)
(-88.322 0 1.64867040545e-12)
(-88.322 0 -3.08826002563e-12)
(-88.322 0 -3.87941257931e-12)
(-88.322 0 2.38979885752e-12)
(-88.322 0 9.72364281635e-13)
(-88.322 0 -3.50021810095e-12)
(-88.322 0 -7.96813572387e-12)
(-88.322 0 -2.6431948125e-12)
(-88.322 0 -3.11350439699e-12)
(-88.322 0 1.90309161955e-12)
(-88.322 0 -2.85131008897e-12)
(-88.322 0 -2.49483560128e-12)
(-88.322 0 6.69439729325e-13)
(-88.322 0 -4.63332346085e-13)
(-88.322 0 -1.33967503188e-12)
(-88.322 0 -1.99501773049e-12)
(-88.322 0 -8.08536605058e-13)
(-88.322 0 7.4276005939e-13)
(-88.322 0 -5.19078891611e-12)
(-88.322 0 -2.18931910809e-12)
(-88.322 0 5.69992416797e-13)
(-88.322 0 6.38653726997e-13)
(-88.322 0 -7.75880304629e-12)
(-88.322 0 -1.36248643585e-11)
(-88.322 0 -5.48351357034e-12)
(-88.322 0 -3.85977034201e-13)
(-88.322 0 -5.46014959348e-12)
(-88.322 0 -5.38493456648e-14)
(-88.322 0 -6.64247284902e-12)
(-88.322 0 -1.12386835479e-11)
(-88.322 0 -4.40933633377e-12)
(-88.322 0 4.17929532253e-13)
(-88.322 0 -1.16013779033e-11)
(-88.322 0 -9.332325044e-12)
(-88.322 0 -1.56811333238e-11)
(-88.322 0 1.9806698425e-12)
(-88.322 0 1.93597124506e-11)
(-88.322 0 -8.51204415962e-12)
(-88.322 0 -1.00265933389e-11)
(-88.322 0 1.50591925627e-12)
(-88.322 0 7.52733470799e-13)
(-88.322 0 -9.46237901379e-12)
(-88.322 0 -1.34451094094e-11)
(-88.322 0 1.61024352209e-11)
(-88.322 0 -8.33091937544e-12)
(-88.322 0 2.37523633884e-13)
(-88.322 0 -1.2102660551e-11)
(-88.322 0 1.25307087773e-11)
(-88.322 0 7.0444034083e-14)
(-88.322 0 1.82838893984e-12)
(-88.322 0 6.60943233047e-13)
(-88.322 0 -8.59832955754e-12)
(-88.322 0 -1.80389939857e-11)
(-88.322 0 -1.23209169161e-11)
(-88.322 0 9.70700079814e-12)
(-88.322 0 5.95921922083e-12)
(-88.322 0 1.78600771408e-11)
(-88.322 0 -1.57069020866e-14)
(-88.322 0 -7.36823361149e-12)
(-88.322 0 6.34600594251e-12)
(-88.322 0 -1.21425702869e-12)
(-88.322 0 -1.83610388304e-12)
(-88.322 0 -1.48861025507e-12)
(-88.322 0 -6.84546186557e-13)
(-88.322 0 -2.61046913583e-13)
(-88.322 0 -3.14792378367e-13)
(-88.322 0 -6.71183177955e-12)
(-88.322 0 1.11512145289e-12)
(-88.322 0 -6.30052437116e-12)
(-88.322 0 3.59265778239e-12)
(-88.322 0 3.27683675748e-13)
(-88.322 0 -2.87942614565e-12)
(-88.322 0 -7.22794605762e-12)
(-88.322 0 -1.18099278046e-11)
(-88.322 0 -1.05131420268e-11)
(-88.322 0 -1.24386152714e-11)
(-88.322 0 -4.04795516818e-12)
(-88.322 0 3.91024195943e-13)
(-88.322 0 1.26140154098e-12)
(-88.322 0 -5.84353572184e-13)
(-88.322 0 -6.43595539977e-12)
(-88.322 0 -2.54793604484e-12)
(-88.322 0 4.3269328251e-12)
(-88.322 0 3.74755010361e-12)
(-88.322 0 1.03899191658e-11)
(-88.322 0 -5.5026372501e-12)
(-88.322 0 -5.0446447012e-13)
(-88.322 0 -1.87400826626e-13)
(-88.322 0 3.84306913805e-12)
(-88.322 0 7.97456420022e-12)
(-88.322 0 1.00249415952e-12)
(-88.322 0 2.31116611191e-12)
(-88.322 0 6.48697709656e-13)
(-88.322 0 -1.74480877318e-12)
(-88.322 0 -4.92263641855e-13)
(-88.322 0 1.94830944262e-13)
(-88.322 0 -1.04388426382e-11)
(-88.322 0 7.73870228405e-12)
(-88.322 0 4.81542880903e-12)
(-88.3219999999 0 8.19921639077e-12)
(-88.322 0 1.69131878573e-11)
(-88.3220000001 0 -8.18845145222e-12)
(-88.322 0 4.22762731373e-12)
(-88.322 0 5.00195662224e-13)
(-88.322 0 -2.23789621677e-13)
(-88.322 0 3.1444074535e-13)
(-88.322 0 -3.13651429436e-12)
(-88.322 0 2.91215172823e-12)
(-88.322 0 -2.26306964049e-12)
(-88.322 0 8.10857928725e-13)
(-88.322 0 4.41895284284e-12)
(-88.322 0 3.04890526206e-12)
(-88.322 0 1.92310233288e-12)
(-88.322 0 -3.54782236142e-12)
(-88.322 0 -5.57251003343e-12)
(-88.322 0 4.17820692566e-12)
(-88.322 0 -1.59272829287e-12)
(-88.322 0 4.96527641497e-12)
(-88.322 0 9.64382569696e-12)
(-88.322 0 6.18537966014e-12)
(-88.322 0 7.10536238403e-12)
(-88.322 0 -2.49194537924e-12)
(-88.322 0 -1.02277784244e-13)
(-88.322 0 -4.29526712861e-12)
(-88.322 0 1.00705375861e-11)
(-88.322 0 4.73372442621e-12)
(-88.322 0 5.1829571819e-14)
(-88.322 0 -2.36085652703e-12)
(-88.322 0 -1.53985574741e-12)
(-88.322 0 2.76570499789e-12)
(-88.322 0 -1.32487388827e-12)
(-88.322 0 -7.17444269927e-14)
(-88.322 0 -2.04603858043e-12)
(-88.322 0 1.03633994308e-12)
(-88.322 0 4.16984630256e-12)
(-88.322 0 2.46836761854e-12)
(-88.322 0 5.85005932823e-13)
(-88.322 0 -7.12628788895e-12)
(-88.322 0 4.59706018853e-13)
(-88.322 0 -4.11373547765e-12)
(-88.322 0 -9.1591076273e-13)
(-88.322 0 -2.4331136092e-12)
(-88.322 0 -2.8355424956e-13)
(-88.322 0 -2.08283894701e-13)
(-88.322 0 1.16838430442e-12)
(-88.322 0 -6.40417161405e-13)
(-88.322 0 5.14271371016e-12)
(-88.322 0 1.73315275497e-13)
(-88.322 0 -4.79891090213e-13)
(-88.322 0 -1.19260661588e-12)
(-88.322 0 6.40052402135e-12)
(-88.322 0 1.34745435488e-11)
(-88.322 0 3.49963537061e-12)
(-88.322 0 4.3503073406e-13)
(-88.322 0 5.50476464397e-12)
(-88.322 0 1.67172415109e-12)
(-88.322 0 6.73058613643e-12)
(-88.322 0 1.12300651045e-11)
(-88.322 0 4.02719376494e-12)
(-88.322 0 -3.22397418609e-13)
(-88.322 0 1.37367694728e-11)
(-88.322 0 9.73005633159e-12)
(-88.322 0 1.60871902312e-11)
(-88.322 0 -1.82282651387e-12)
(-88.322 0 -1.74899170998e-11)
(-88.322 0 8.33955023938e-12)
(-88.322 0 9.56228532173e-12)
(-88.322 0 -1.48149332322e-12)
(-88.322 0 -1.39852355084e-12)
(-88.322 0 8.9728770602e-12)
(-88.322 0 1.31222688974e-11)
(-88.322 0 -1.62004670623e-11)
(-88.322 0 8.89291512861e-12)
(-88.322 0 -6.75253012564e-14)
(-88.322 0 1.16931038742e-11)
(-88.322 0 -1.25349245156e-11)
(-88.322 0 -1.13363774942e-13)
(-88.322 0 -1.89092504187e-12)
(-88.322 0 -1.36452034634e-12)
(-88.322 0 7.5092770305e-12)
(-88.322 0 1.73951537423e-11)
(-88.322 0 9.19314602333e-12)
(-88.322 0 -7.83888871281e-12)
(-88.322 0 -2.04561016589e-12)
(-88.322 0 -2.34664093399e-11)
(-88.322 0 8.43912542702e-12)
(-88.322 0 3.59878534293e-12)
(-88.322 0 -4.79328402109e-13)
(-88.322 0 -7.00609498114e-12)
(-88.322 0 1.79121699209e-12)
(-88.322 0 -1.00651110071e-12)
(-88.322 0 5.16884750366e-13)
(-88.322 0 5.04777241903e-12)
(-88.322 0 -2.41505875456e-12)
(-88.322 0 6.45765408331e-12)
(-88.322 0 -9.87340724231e-13)
(-88.322 0 5.36742913255e-12)
(-88.322 0 -4.73460195619e-12)
(-88.322 0 -4.50381477159e-12)
(-88.322 0 3.40744061845e-13)
(-88.322 0 4.08007910732e-12)
(-88.322 0 1.20709940076e-11)
(-88.322 0 4.2109218755e-12)
(-88.322 0 1.5263683582e-12)
(-88.322 0 -1.56648152747e-12)
(-88.322 0 -3.46973809556e-13)
(-88.322 0 -1.26061349535e-12)
(-88.322 0 7.68974456109e-13)
(-88.322 0 5.20601423998e-12)
(-88.322 0 2.7125789605e-12)
(-88.322 0 -6.03104362857e-12)
(-88.322 0 -3.8016003421e-12)
(-88.322 0 -9.9331547449e-12)
(-88.322 0 4.22117004431e-12)
(-88.322 0 -7.00686891252e-14)
(-88.322 0 -5.82438644824e-15)
(-88.322 0 -3.85503726938e-12)
(-88.322 0 -8.43840597664e-12)
(-88.322 0 -3.38193522756e-12)
(-88.322 0 -2.37106313146e-12)
(-88.322 0 -3.2457091903e-13)
(-88.322 0 1.54686977695e-12)
(-88.322 0 2.66024821405e-13)
(-88.322 0 -2.01369587041e-12)
(-88.322 0 6.4218215779e-12)
(-88.322 0 -1.00853397648e-11)
(-88.322 0 -1.14608085349e-11)
(-88.322 0 -1.03594098969e-11)
(-88.322 0 8.7092593771e-12)
(-88.322 0 -4.03119082648e-12)
(-88.322 0 -1.42309056051e-11)
(-88.322 0 6.36807197294e-12)
(-88.322 0 2.40776225182e-12)
(-88.322 0 -2.00468881466e-12)
(-88.322 0 2.79956960046e-12)
(-88.322 0 -8.02183865771e-12)
(-88.322 0 -6.14064416806e-12)
(-88.322 0 -3.17145317955e-12)
(-88.322 0 -7.27509612152e-12)
(-88.322 0 -3.14009762018e-12)
(-88.322 0 -1.71052328368e-12)
(-88.322 0 3.81403189131e-12)
(-88.322 0 6.02944457813e-12)
(-88.322 0 -5.81917104464e-12)
(-88.322 0 1.26268829012e-12)
(-88.322 0 -7.47436646791e-12)
(-88.322 0 9.58296646193e-12)
(-88.322 0 -6.40081373985e-12)
(-88.322 0 -1.30634503007e-11)
(-88.322 0 -5.93158681245e-12)
(-88.322 0 -3.71508742246e-12)
(-88.322 0 8.53319426931e-13)
(-88.322 0 3.23999103711e-13)
(-88.322 0 -8.40573224041e-13)
(-88.322 0 1.85489922914e-13)
(-88.322 0 1.09470745255e-13)
(-88.322 0 -3.65678249033e-12)
(-88.322 0 -6.45887186081e-13)
(-88.322 0 -7.82874075518e-13)
(-88.322 0 -2.14865331887e-12)
(-88.322 0 -9.93641325477e-13)
(-88.322 0 2.31995317355e-12)
(-88.322 0 4.52388062459e-14)
(-88.322 0 -2.46265435828e-15)
(-88.322 0 2.2437414923e-12)
(-88.322 0 8.34741949839e-12)
(-88.322 0 -7.02455519705e-12)
(-88.322 0 -1.32836137833e-11)
(-88.322 0 9.41504885205e-13)
(-88.322 0 2.38040300123e-12)
(-88.322 0 2.71907452659e-13)
(-88.322 0 4.16954237571e-13)
(-88.322 0 -2.00665587065e-12)
(-88.322 0 1.06507825001e-13)
(-88.322 0 -2.90258047885e-13)
(-88.322 0 -1.84721941957e-13)
(-88.322 0 -1.8522648876e-12)
(-88.322 0 -4.89398543179e-13)
(-88.322 0 1.72808498642e-12)
(-88.322 0 2.23072900056e-14)
(-88.322 0 -1.95432681791e-13)
(-88.322 0 -2.23406871442e-12)
(-88.322 0 -6.99375395133e-13)
(-88.322 0 -5.6002405829e-12)
(-88.322 0 -1.31206727639e-13)
(-88.322 0 3.55208627637e-16)
(-88.322 0 2.7067236168e-13)
(-88.322 0 -2.78615297069e-15)
(-88.322 0 -2.8556703572e-14)
(-88.322 0 -5.25774635404e-14)
(-88.322 0 -1.12623059096e-13)
(-88.322 0 -4.42498414419e-12)
(-88.322 0 -1.00010188823e-13)
(-88.322 0 2.71801878068e-14)
(-88.322 0 -5.26089853656e-14)
(-88.322 0 1.22168244157e-14)
(-88.322 0 6.42179090293e-13)
(-88.322 0 8.24799138124e-15)
(-88.322 0 1.70167044963e-14)
(-88.322 0 4.69466305086e-14)
(-88.322 0 -6.31221633367e-13)
(-88.322 0 -1.97684375158e-13)
(-88.322 0 -5.77527826738e-14)
(-88.322 0 2.27125571736e-14)
(-88.322 0 -1.3737023247e-14)
(-88.322 0 6.57115260229e-14)
(-88.322 0 6.98326612255e-13)
(-88.322 0 5.41021036557e-13)
(-88.322 0 -1.91800991144e-13)
(-88.322 0 -2.7616562782e-13)
(-88.322 0 -1.972638646e-13)
(-88.322 0 -3.61969729818e-13)
(-88.322 0 2.31036159965e-14)
(-88.322 0 -4.20388234621e-15)
(-88.322 0 6.54879845297e-13)
(-88.322 0 7.71107203986e-12)
(-88.322 0 9.85658032743e-12)
(-88.322 0 3.99264763229e-12)
(-88.322 0 -1.36138299361e-12)
(-88.322 0 6.84151545341e-12)
(-88.322 0 -4.47296111496e-12)
(-88.322 0 1.5956544592e-12)
(-88.322 0 6.17810536383e-12)
(-88.322 0 -7.00812037603e-14)
(-88.322 0 8.18931467975e-13)
(-88.322 0 1.23562092221e-12)
(-88.322 0 4.26768844847e-12)
(-88.322 0 2.62329729547e-12)
(-88.322 0 8.52680568923e-12)
(-88.322 0 4.62034578426e-12)
(-88.322 0 3.41800071219e-12)
(-88.322 0 8.11606426227e-12)
(-88.322 0 1.32303478266e-11)
(-88.322 0 2.007119759e-13)
(-88.322 0 -4.79096081552e-13)
(-88.322 0 -3.67350091367e-12)
(-88.322 0 -1.57626307917e-12)
(-88.322 0 -5.72417997725e-13)
(-88.322 0 1.54169906847e-12)
(-88.322 0 1.0499816481e-13)
(-88.322 0 -6.04790178299e-12)
(-88.322 0 4.33219217107e-13)
(-88.322 0 -4.5114392895e-12)
(-88.322 0 -1.42208117521e-12)
(-88.322 0 3.13656651709e-13)
(-88.322 0 3.03037372215e-12)
(-88.322 0 7.33094244538e-13)
(-88.322 0 1.99430778371e-13)
(-88.322 0 4.55994488598e-12)
(-88.322 0 -1.28412510727e-12)
(-88.322 0 4.28219573339e-13)
(-88.322 0 1.34258228512e-12)
(-88.322 0 -7.9865464458e-12)
(-88.322 0 5.70336268158e-12)
(-88.322 0 7.50879620505e-12)
(-88.322 0 4.63065304473e-12)
(-88.322 0 -1.41484112007e-11)
(-88.322 0 6.3835121157e-12)
(-88.322 0 9.77024628239e-12)
(-88.322 0 -6.32901360862e-12)
(-88.322 0 -1.73008262329e-12)
(-88.322 0 1.51576714494e-12)
(-88.322 0 -5.98906304992e-13)
(-88.322 0 1.00682968078e-11)
(-88.322 0 8.75118378104e-12)
(-88.322 0 1.59918942019e-12)
(-88.322 0 2.54382296417e-12)
(-88.322 0 2.88618677735e-12)
(-88.322 0 3.2865125464e-13)
(-88.322 0 4.05227083539e-13)
(-88.322 0 8.20880081345e-14)
(-88.322 0 1.51108845922e-12)
(-88.322 0 -1.31984667467e-12)
(-88.322 0 3.41585986273e-12)
(-88.322 0 -1.02383167822e-11)
(-88.322 0 6.54112688757e-14)
(-88.322 0 1.1341445545e-11)
(-88.322 0 5.58775596411e-12)
(-88.322 0 4.79219251908e-12)
(-88.322 0 5.54557251663e-12)
(-88.322 0 -1.09444320141e-11)
(-88.322 0 -4.07806255736e-12)
(-88.322 0 1.49070092752e-12)
(-88.322 0 2.32200772698e-12)
(-88.322 0 5.00166483364e-12)
(-88.322 0 1.37074764758e-12)
(-88.322 0 -3.38759824108e-12)