/*--------------------------------*- C++ -*----------------------------------*\
  =========                 |
  \\      /  F ield         | OpenFOAM: The Open Source CFD Toolbox
   \\    /   O peration     | Website:  https://openfoam.org
    \\  /    A nd           | Version:  6
     \\/     M anipulation  |
\*---------------------------------------------------------------------------*/
FoamFile
{
    version     2.0;
    format      ascii;
    class       volScalarField;
    location    "4.43e-05";
    object      p;
}
// * * * * * * * * * * * * * * * * * * * * * * * * * * * * * * * * * * * * * //

dimensions      [1 -1 -2 0 0 0 0];

internalField   nonuniform List<scalar> 
8192
(
6000000.00042
5999999.99929
6000000.00057
6000000.00049
6000000.00368
5999999.99736
6000000.00107
6000000.00016
6000000.00006
5999999.99992
6000000.00023
6000000.00001
6000000.00073
6000000.00146
6000000.00097
6000000.00041
6000000.0007
5999999.9989
5999999.99917
6000000.00072
5999999.99873
5999999.9973
6000000.00176
6000000
5999999.99965
6000000.00007
5999999.99905
5999999.99935
5999999.99828
5999999.99965
6000000.00001
6000000.00028
5999999.99671
5999999.99355
6000000.00773
6000000.00776
5999999.99901
6000000.00476
5999999.99907
5999999.99778
6000000.00211
5999999.99854
5999999.99978
5999999.99996
6000000.00021
6000000.00014
6000000.00001
6000000.00031
5999999.99924
6000000.0011
5999999.99774
6000000.00025
6000000.00269
5999999.99661
5999999.99753
6000000.00164
6000000.00022
6000000.00281
5999999.99957
6000000.00474
5999999.99704
5999999.99762
5999999.99728
6000000.00139
6000000.00019
6000000.00155
5999999.9994
6000000.00338
5999999.99651
6000000.00266
5999999.999
5999999.99773
6000000.00242
6000000.00287
6000000.0069
5999999.99676
5999999.99406
6000000.00656
6000000.00258
5999999.9958
5999999.99555
5999999.99313
6000000.00317
6000000.00586
6000000.00008
5999999.99896
6000000.00648
6000000.00485
5999999.99806
5999999.99724
5999999.99905
5999999.99867
5999999.99738
6000000.0033
5999999.99743
6000000.00146
6000000.00161
5999999.99981
6000000.00382
5999999.99826
5999999.99986
5999999.99989
5999999.99969
6000000.00004
5999999.99933
6000000.00028
6000000.0001
6000000
5999999.99998
5999999.99998
6000000.00002
6000000.00008
5999999.99968
6000000.00051
5999999.99984
6000000.00099
6000000.00018
5999999.99915
6000000.00085
5999999.99954
5999999.99928
5999999.99911
6000000.00002
5999999.9998
6000000.00016
5999999.99974
6000000.00033
6000000.00051
6000000.00524
6000000.00052
5999999.99837
6000000.00064
5999999.99923
5999999.99929
6000000.00002
5999999.99996
6000000.00014
6000000.00106
5999999.99848
6000000.00378
6000000.00096
6000000.0033
6000000.0046
5999999.99727
5999999.99622
5999999.99803
6000000.00224
6000000.00238
6000000.00011
5999999.99985
5999999.99883
6000000.00086
5999999.99535
6000000.00127
5999999.99642
5999999.99642
6000000.00108
6000000.00022
5999999.99895
5999999.99927
5999999.99982
5999999.99977
6000000.00031
6000000.00063
5999999.9997
6000000.00242
6000000.00027
6000000.00075
5999999.99872
6000000.0004
5999999.99805
6000000.00302
6000000.0023
6000000.00294
6000000.00195
6000000.00438
6000000.00212
6000000.00111
5999999.99438
6000000.0023
6000000.00132
5999999.99861
6000000.00078
5999999.99837
6000000.00256
6000000.00117
6000000.00215
5999999.99476
5999999.99227
6000000.00184
6000000.00641
6000000.00422
5999999.9995
5999999.99988
6000000.00021
6000000.00004
5999999.99992
6000000.00001
5999999.99998
6000000.00001
6000000.00015
6000000.00001
6000000.00017
5999999.99817
5999999.99805
6000000.00237
5999999.99929
6000000.00002
6000000.00004
5999999.99997
6000000.00006
6000000.00017
6000000.00014
5999999.99946
5999999.99995
6000000.00004
5999999.99988
5999999.99998
5999999.9999
5999999.99702
6000000.00017
6000000.00137
5999999.99749
6000000.00088
6000000.00704
5999999.99396
5999999.9967
6000000.00543
6000000.00874
5999999.99171
5999999.99621
6000000.00185
6000000.00367
5999999.99617
6000000.00293
5999999.99995
6000000.00411
5999999.99813
6000000.00724
6000000.0037
5999999.99241
6000000.00021
6000000.0054
5999999.99785
6000000.00497
5999999.99492
5999999.99899
6000000.00178
6000000.00252
6000000.00304
6000000.00068
6000000.00199
6000000.00048
5999999.99898
5999999.99943
5999999.99936
5999999.99976
5999999.99897
6000000.00035
5999999.99822
6000000.00271
5999999.99878
5999999.99983
5999999.99949
5999999.99988
5999999.99992
6000000.00002
6000000.00072
6000000.00139
5999999.99747
6000000.00048
6000000.00029
6000000.00023
6000000.00216
5999999.99576
5999999.99747
6000000.00561
6000000.00166
5999999.99612
5999999.99543
5999999.99901
5999999.99539
5999999.99839
5999999.99501
6000000.00126
6000000.00414
5999999.99683
6000000.00056
5999999.99911
6000000.00142
5999999.99983
5999999.99937
6000000.00172
5999999.99767
6000000.00112
5999999.99997
6000000
6000000.00014
6000000.00001
6000000.00001
6000000.00002
6000000.00027
5999999.99894
6000000.00168
5999999.99745
5999999.99968
5999999.99906
6000000.00088
6000000.00429
5999999.99815
5999999.99476
6000000.00227
6000000.00506
5999999.99826
6000000.00339
5999999.99838
6000000.00561
5999999.99716
5999999.99731
5999999.99675
6000000.00204
6000000.0015
5999999.99674
6000000.0017
6000000.00061
6000000.00076
6000000.00055
5999999.99965
6000000
6000000.00017
5999999.99885
6000000.00285
6000000.00245
6000000.00097
6000000.00036
5999999.99971
5999999.99774
5999999.99796
6000000.0005
6000000.00055
5999999.99997
5999999.99895
5999999.9984
6000000.00098
5999999.99722
6000000.00072
5999999.99719
5999999.99455
5999999.99637
6000000.00283
5999999.99769
5999999.99613
6000000.00733
5999999.99876
6000000.00321
6000000.00028
5999999.99774
6000000.0039
5999999.99659
6000000.00309
5999999.9997
5999999.99963
6000000.00033
6000000
6000000.00021
6000000.00007
6000000.00016
6000000.00174
5999999.99856
6000000.0027
6000000.0007
5999999.99842
6000000.0016
5999999.99977
5999999.99978
6000000.00408
5999999.99887
6000000.00301
6000000.00331
5999999.9935
5999999.99366
5999999.99586
5999999.99879
6000000.00062
6000000.0014
6000000.00171
5999999.99548
5999999.99171
6000000.00172
5999999.99697
5999999.99856
6000000.00479
5999999.99858
5999999.99888
6000000.00144
5999999.99726
5999999.9979
6000000.00653
5999999.99604
5999999.99867
5999999.9937
6000000.00111
6000000.00541
6000000.00011
5999999.99794
5999999.99191
6000000.00309
5999999.99981
6000000.00357
5999999.99816
5999999.99704
6000000.00245
5999999.99535
5999999.99477
6000000.0001
6000000.00308
5999999.99819
5999999.99803
5999999.99758
6000000.00184
6000000.0021
5999999.99852
6000000.0013
5999999.99891
5999999.99954
6000000.00068
5999999.99993
5999999.99998
6000000.00005
5999999.99971
6000000.00092
5999999.99695
6000000.00066
6000000.00009
5999999.99961
5999999.99773
6000000.00114
6000000.0007
5999999.99911
6000000.00066
6000000.00108
5999999.99835
5999999.99912
6000000.00025
5999999.99947
5999999.9979
5999999.99713
5999999.99872
5999999.9967
6000000.00154
6000000.00167
6000000.00072
6000000.00019
5999999.99953
6000000.00177
5999999.9983
6000000.00278
6000000.00207
5999999.99511
6000000.00431
6000000.00154
6000000.00044
6000000.00101
5999999.99874
6000000.00213
5999999.99932
5999999.99944
6000000.00023
6000000.00005
5999999.99982
5999999.9981
6000000.00254
5999999.99765
5999999.99962
6000000.00107
5999999.99763
6000000.0026
5999999.99753
6000000.0014
5999999.99939
5999999.99988
5999999.99839
6000000.00266
6000000.0064
5999999.99805
5999999.99827
6000000.00043
6000000.00253
5999999.99888
5999999.99825
6000000.0039
5999999.99869
5999999.99995
5999999.99992
6000000.00057
6000000.00243
5999999.99804
6000000.0035
5999999.9987
5999999.99874
6000000.00174
5999999.99971
5999999.99979
6000000.00264
6000000.00119
6000000.00204
5999999.99946
5999999.99876
5999999.99938
5999999.99671
5999999.99582
6000000.00198
6000000.00041
5999999.99866
5999999.9997
5999999.99926
5999999.99998
5999999.99896
6000000.00019
5999999.99951
6000000.00002
6000000.00029
6000000.00002
6000000.00002
5999999.99969
6000000.00019
6000000.00001
5999999.99991
5999999.99989
5999999.99988
6000000.00006
6000000.00007
5999999.9999
5999999.99989
5999999.99982
6000000.00002
5999999.99985
5999999.99992
5999999.99985
5999999.99991
6000000.00001
6000000
5999999.99985
5999999.99998
6000000.00002
6000000.00009
5999999.99865
6000000.00265
5999999.99828
5999999.99948
5999999.9996
5999999.99958
6000000.00003
5999999.99998
6000000.00001
6000000.00004
6000000.00021
6000000.00014
6000000.00002
6000000.00002
5999999.99979
5999999.99771
6000000.00261
6000000.00156
5999999.99935
5999999.99402
5999999.99235
6000000.00198
6000000.00449
6000000.00151
6000000.00408
5999999.99677
6000000.00455
5999999.99405
6000000.00057
5999999.99677
6000000.00049
6000000.00041
6000000.0017
5999999.99942
6000000.00159
5999999.99719
6000000.00072
6000000.00023
6000000.00003
6000000.00019
6000000.00009
5999999.99982
5999999.99916
6000000.00165
5999999.99989
6000000.00001
6000000.00002
5999999.99992
5999999.99993
6000000.00003
6000000.00018
5999999.9996
5999999.9992
5999999.99914
5999999.99871
5999999.99983
5999999.99904
5999999.99806
6000000.00102
6000000.00074
6000000.00059
6000000.00178
5999999.99788
5999999.99707
6000000.00772
6000000.00353
6000000.00084
6000000.00358
5999999.99754
5999999.9994
6000000.00006
5999999.99981
6000000.00011
6000000.00007
6000000.00043
5999999.99983
6000000.00176
5999999.99913
5999999.99935
5999999.99984
5999999.99971
6000000.00039
6000000.00393
6000000.00016
5999999.9977
6000000.00314
6000000.0019
6000000.00106
6000000.00091
5999999.9975
5999999.99865
6000000.00479
6000000.00396
6000000.00292
5999999.99831
5999999.99789
6000000.00229
5999999.99973
5999999.99859
5999999.998
6000000.00251
6000000.0017
6000000.00037
6000000.00109
5999999.99901
6000000.00064
5999999.99962
6000000.00055
6000000.00052
6000000.00051
6000000.00055
5999999.99957
5999999.99902
6000000.00172
6000000.00134
5999999.99409
5999999.99533
6000000.00359
6000000.00147
6000000.00023
5999999.99844
6000000.00231
5999999.99782
6000000.00084
6000000.00148
6000000.00228
5999999.99437
6000000.00299
6000000.00184
6000000.0053
5999999.99503
5999999.99748
6000000.00148
6000000.00126
5999999.99453
5999999.99869
6000000.00273
6000000.00555
5999999.99886
6000000.00193
6000000.00142
6000000.0047
5999999.99708
6000000.00108
6000000.0017
5999999.99612
6000000.00328
6000000.00332
6000000.0057
6000000.00885
5999999.99506
5999999.99771
6000000.00417
6000000.00562
5999999.99398
5999999.99439
6000000.00228
5999999.99761
6000000.00001
6000000.00023
5999999.99753
6000000.0027
5999999.998
6000000.00164
5999999.99714
5999999.99589
6000000.00265
6000000.00364
5999999.9993
6000000.00365
6000000.00169
6000000.00068
5999999.99946
6000000.00005
5999999.99869
6000000.00392
6000000.00779
5999999.99643
5999999.99895
5999999.99189
6000000.00539
6000000.00589
5999999.9959
5999999.99666
5999999.99624
5999999.99772
5999999.99613
6000000.00014
5999999.99936
6000000.00014
5999999.99986
5999999.99955
6000000.00243
5999999.99562
5999999.99604
5999999.99669
6000000.00507
5999999.9999
5999999.99979
6000000.00089
5999999.99946
6000000.00183
5999999.99933
6000000.00153
6000000.00618
5999999.99615
5999999.99494
5999999.9942
6000000.00245
6000000.00244
5999999.99359
5999999.99796
5999999.99671
6000000.00139
5999999.99852
5999999.99446
6000000.00379
6000000.00317
5999999.99998
6000000.00088
5999999.99996
6000000.00017
6000000.00006
6000000.00006
6000000.00001
5999999.99997
5999999.99992
5999999.99991
6000000.00015
6000000.0001
5999999.9994
6000000.00111
6000000.00457
6000000.00033
6000000.00019
6000000.00192
5999999.99939
6000000.00236
6000000.00028
5999999.99972
5999999.99992
5999999.99996
6000000.00161
5999999.99782
5999999.99772
6000000.00146
5999999.99794
6000000.00052
5999999.99968
5999999.99992
5999999.99982
6000000.00001
5999999.99985
6000000.00004
5999999.9998
5999999.99732
6000000.00257
5999999.99916
5999999.99948
6000000.00006
5999999.99689
6000000.00061
6000000.00059
6000000.00004
6000000.00022
5999999.9991
6000000.00287
6000000
5999999.99995
6000000.00051
5999999.99976
6000000.00043
5999999.9984
6000000.00419
6000000.00291
5999999.99709
5999999.99811
6000000.00216
5999999.99802
6000000.00279
5999999.99968
6000000.00001
5999999.99998
5999999.99979
6000000.00003
5999999.99984
6000000.00113
5999999.99781
6000000.00165
6000000.00075
6000000.0005
5999999.99959
6000000.0005
5999999.9974
6000000.00551
6000000.00292
5999999.99548
6000000.00161
6000000.0033
6000000.00402
5999999.99688
5999999.9961
6000000.00242
5999999.99882
5999999.99976
6000000.00008
5999999.99995
5999999.99992
5999999.99997
6000000.00002
5999999.99991
5999999.99993
5999999.99991
6000000.00004
5999999.99907
6000000.00147
5999999.99781
5999999.99942
6000000.00156
5999999.99477
6000000.00432
6000000.00414
6000000.0018
5999999.99907
6000000.00341
6000000.00481
5999999.99797
5999999.9969
6000000.00391
5999999.9998
6000000.00328
6000000.00461
6000000.00056
6000000.00597
6000000.00003
5999999.9998
6000000.00105
6000000.00092
5999999.99993
5999999.99997
6000000.00338
5999999.99921
6000000.00126
6000000.00195
6000000.0034
6000000.00176
5999999.99499
6000000.001
6000000.00041
5999999.99981
5999999.9993
6000000.00456
6000000.0023
5999999.99858
6000000.00232
5999999.99974
5999999.99981
6000000.00068
5999999.99933
6000000.00148
5999999.99323
6000000.00283
6000000.0021
5999999.99939
5999999.9998
6000000.00026
6000000.0003
6000000.00035
6000000.00002
6000000.00002
6000000.00001
6000000.00001
5999999.99989
6000000.00001
5999999.99985
6000000.00001
6000000.00002
5999999.99982
6000000.00024
5999999.99994
5999999.99985
5999999.99993
6000000.00001
5999999.99937
5999999.99978
6000000.0003
6000000.00071
5999999.99817
5999999.99836
6000000.0008
6000000.00075
5999999.9998
6000000.00026
5999999.99893
6000000.00223
6000000.0016
6000000.00072
6000000.00031
5999999.99949
5999999.99873
6000000.00217
5999999.99517
6000000.00673
5999999.99663
5999999.99563
6000000.00456
6000000.00315
6000000.00544
6000000.00008
6000000.00025
5999999.9961
5999999.9953
5999999.99636
6000000.00112
5999999.99769
6000000.00398
5999999.99976
5999999.99823
6000000.00071
5999999.99799
6000000.00099
5999999.99807
6000000.00414
5999999.9948
5999999.99673
6000000.00493
5999999.99591
5999999.9969
5999999.99846
6000000.00099
6000000.00102
6000000.0008
6000000.00002
6000000.00087
5999999.99979
6000000.00184
5999999.99582
6000000.00096
6000000.00062
5999999.99996
5999999.99768
5999999.99949
5999999.99972
5999999.9975
5999999.99902
6000000.00079
5999999.99996
6000000.0009
6000000.00174
5999999.9986
5999999.99891
6000000.00331
5999999.99928
5999999.99989
5999999.99998
6000000.00001
6000000.00002
6000000.00013
6000000.00002
6000000
6000000.00017
6000000.00037
5999999.99734
6000000.00018
5999999.99995
5999999.99999
6000000.00001
6000000.0006
5999999.99823
6000000.00261
6000000.00166
5999999.99496
6000000.00683
5999999.99382
5999999.99241
6000000.00345
6000000.00491
5999999.99361
5999999.99786
5999999.9981
5999999.9998
6000000.00148
5999999.99862
6000000.0013
5999999.99722
5999999.99798
5999999.99965
5999999.99847
6000000.00177
5999999.99761
6000000.00196
6000000.00317
5999999.99539
5999999.99685
5999999.99571
5999999.99972
6000000.00477
6000000.00158
5999999.99632
5999999.99298
6000000.00393
6000000.0035
5999999.99456
5999999.99861
6000000.00443
6000000.00394
5999999.99731
5999999.99854
6000000.00295
6000000.00003
6000000.00002
6000000.00001
6000000.00001
6000000.00019
6000000.00157
5999999.99878
5999999.99868
5999999.99938
5999999.99981
6000000.00039
6000000.00005
6000000.0002
5999999.99876
5999999.99798
6000000.00109
6000000.0001
6000000.00004
6000000.00002
6000000.00001
5999999.99973
5999999.99998
6000000.00007
5999999.99994
5999999.99878
6000000.00023
6000000.00259
5999999.99785
6000000.00014
5999999.99995
5999999.99583
6000000.00118
6000000.00064
6000000.00284
6000000.00128
6000000.00027
6000000.00031
6000000.0005
5999999.99774
6000000.00346
5999999.99776
6000000.00203
6000000.00167
6000000.00417
5999999.99971
5999999.99958
6000000.00601
6000000.00241
6000000.00225
6000000.00166
5999999.996
5999999.99916
6000000.0018
6000000.00024
5999999.99764
5999999.99805
6000000.00114
5999999.99676
5999999.99945
5999999.99769
6000000.00019
6000000.00214
5999999.99931
5999999.99902
5999999.99888
5999999.99984
5999999.9998
6000000.00028
6000000.00006
6000000.00014
5999999.99957
6000000.00108
6000000.00132
5999999.99728
6000000
6000000.00009
6000000.00002
6000000.00007
6000000.00003
6000000.00022
6000000.00106
5999999.99873
6000000.00168
6000000.00121
5999999.99716
6000000.00406
5999999.99476
5999999.99938
6000000.00266
6000000.00659
6000000.00313
6000000.00148
6000000.0016
5999999.99405
5999999.99776
5999999.99827
5999999.99978
6000000.00203
6000000.00519
5999999.99403
5999999.9971
5999999.99458
6000000.00592
6000000.00281
6000000.00244
5999999.99916
6000000.0004
6000000.00082
6000000.00128
5999999.99968
5999999.99908
5999999.99987
6000000.00002
6000000
6000000.00053
5999999.99922
6000000.00097
5999999.99919
6000000.00036
5999999.99886
5999999.99562
6000000.00168
6000000.0008
5999999.99578
5999999.99551
6000000.00533
5999999.99773
5999999.99566
6000000.0018
6000000.00646
5999999.99518
6000000.00352
5999999.99899
5999999.99898
6000000.00382
5999999.99986
6000000.00012
6000000
6000000.00001
6000000.00003
6000000.00001
6000000.00003
6000000.00002
6000000.00007
6000000.00018
6000000.00021
6000000.00004
6000000.00001
5999999.99987
6000000.0004
6000000.00171
5999999.99656
6000000.00353
6000000.00521
5999999.99873
6000000.00171
6000000.00109
6000000.00142
5999999.99953
6000000.00045
5999999.9942
6000000.0009
5999999.99919
6000000.00152
6000000.00128
5999999.99905
5999999.99869
5999999.99938
5999999.99953
6000000.00009
5999999.99913
6000000.00096
6000000.00241
5999999.9987
5999999.9995
5999999.99952
6000000.00025
6000000.00002
6000000.00001
5999999.99995
5999999.99948
6000000.00045
5999999.99953
5999999.99753
6000000.00288
5999999.99711
6000000.0019
5999999.99941
5999999.99961
5999999.99993
5999999.99925
6000000.0022
5999999.99538
6000000.00203
5999999.99967
5999999.99972
6000000.00002
5999999.99954
5999999.99994
5999999.99993
6000000.00044
5999999.99927
5999999.99911
6000000.00004
5999999.99993
5999999.99992
5999999.99999
6000000.00009
5999999.99993
5999999.9999
6000000.00001
5999999.99993
5999999.99996
6000000.00001
5999999.99993
6000000.00029
6000000.00001
6000000.00013
6000000.00012
6000000.00098
5999999.9989
6000000.00201
5999999.99723
6000000.00153
6000000.00111
6000000.00216
6000000.00252
5999999.99719
5999999.9997
5999999.99841
6000000.00142
5999999.99914
5999999.99809
6000000.00059
5999999.99877
5999999.99943
5999999.99989
6000000.00037
6000000.0033
6000000.00106
6000000.00317
5999999.99906
6000000.00024
6000000.00186
5999999.9957
6000000.00143
5999999.99688
6000000.00394
6000000.00278
5999999.99516
5999999.99609
5999999.99558
6000000.00501
6000000.002
6000000.00594
5999999.99695
5999999.99718
6000000.00098
5999999.99429
5999999.99538
5999999.99752
5999999.99826
6000000.00091
5999999.9963
5999999.99767
5999999.99262
5999999.99951
5999999.99513
5999999.99768
5999999.99699
5999999.99697
5999999.99685
5999999.99555
6000000.0033
6000000.00052
6000000.00075
5999999.99627
6000000.00104
5999999.99988
5999999.99976
6000000.00018
5999999.99971
5999999.99975
5999999.99685
6000000.00415
5999999.99403
5999999.99425
6000000.00139
5999999.99518
5999999.99498
6000000.0062
5999999.99528
5999999.99395
6000000.00061
6000000.00162
5999999.99997
6000000.00023
6000000.00003
6000000.00003
5999999.99993
6000000.00042
5999999.99963
6000000.00042
6000000.00023
6000000.00007
6000000.00002
5999999.99992
5999999.99993
6000000.00007
6000000.00063
5999999.99899
5999999.99951
6000000.00127
5999999.99977
5999999.99993
5999999.99985
5999999.99957
5999999.99917
6000000.00028
6000000.00002
5999999.99941
5999999.99991
5999999.99958
6000000.0001
6000000.00115
5999999.99946
6000000.00087
6000000.00181
6000000.00227
5999999.99746
5999999.99816
6000000.00222
5999999.9998
6000000.00025
6000000.00052
5999999.99785
6000000.00206
6000000.00153
6000000.00035
5999999.99924
6000000.00004
5999999.99769
6000000.00213
6000000.00043
6000000.00121
5999999.99917
5999999.99854
6000000.0044
6000000.00486
5999999.99283
5999999.99706
6000000.00214
6000000.00151
5999999.99881
6000000.00124
6000000.0003
6000000.00264
5999999.9989
6000000.00115
5999999.99992
5999999.99992
6000000.00001
6000000.00003
5999999.99997
5999999.99998
5999999.99998
6000000.00001
6000000.00003
6000000.00013
6000000.00001
6000000.00001
6000000.00001
5999999.99999
6000000.00014
6000000
6000000.00001
5999999.99993
5999999.99996
6000000.00013
6000000
5999999.99995
6000000.00013
6000000.00001
6000000.00001
5999999.9999
6000000.00005
5999999.99995
6000000.00002
6000000.0002
5999999.99961
5999999.99954
5999999.9997
6000000.00022
6000000.00174
5999999.99917
5999999.99983
5999999.99993
6000000.00006
6000000.00001
6000000.00009
5999999.99993
6000000.00001
6000000.00001
5999999.99995
5999999.99955
6000000.00045
5999999.9988
6000000.00218
6000000.00017
5999999.99914
6000000.00148
5999999.99859
6000000.00253
6000000.00406
5999999.9992
5999999.99962
6000000.00636
6000000.00112
6000000.00051
6000000.00038
5999999.99987
6000000.00004
6000000.00006
6000000.00019
6000000.00004
6000000.00003
6000000.00005
5999999.99979
6000000.00022
6000000.00015
6000000.00021
6000000.00013
5999999.99989
6000000.00002
5999999.99992
6000000.00002
6000000.00004
6000000.00048
5999999.99839
5999999.99805
6000000.00324
5999999.99792
6000000.00296
5999999.99773
5999999.99917
6000000.00015
5999999.99783
5999999.99922
6000000.00254
5999999.99635
5999999.99446
6000000.0005
5999999.99434
5999999.99305
6000000.00155
5999999.99722
5999999.99941
5999999.9963
6000000.00187
6000000.00148
5999999.99781
6000000.00322
5999999.99828
5999999.99849
6000000.00147
6000000.00155
6000000.00029
5999999.99958
5999999.99991
6000000.00004
5999999.99992
5999999.99991
6000000.00066
5999999.99967
6000000.00115
5999999.9988
5999999.99878
6000000.00029
5999999.9989
5999999.99964
5999999.99811
5999999.99904
5999999.99911
5999999.99997
5999999.99908
6000000.00307
5999999.9993
5999999.99932
5999999.99956
5999999.99998
5999999.99996
5999999.99989
5999999.99984
6000000.00014
5999999.99998
5999999.99996
6000000.00007
5999999.99999
5999999.99998
6000000.00003
5999999.99998
6000000.00011
5999999.99975
6000000.00075
5999999.99787
5999999.99936
6000000.00024
6000000
5999999.99998
5999999.99997
6000000
5999999.9999
5999999.99986
5999999.99999
5999999.99991
5999999.99932
6000000.0005
5999999.99962
6000000.00052
5999999.99989
5999999.99987
6000000.00133
5999999.99958
5999999.99975
5999999.99994
6000000.00005
5999999.99991
5999999.99998
5999999.99989
5999999.99991
5999999.99998
5999999.99986
5999999.99926
6000000.00024
5999999.99908
6000000.00291
5999999.99943
6000000.00022
6000000.00007
5999999.99987
5999999.99974
6000000.00056
5999999.99949
5999999.99557
6000000.0028
6000000.00008
6000000.00012
6000000.00009
6000000.00058
6000000.00073
5999999.99846
6000000.00264
6000000.00342
6000000.0005
5999999.99855
6000000.0027
6000000.00177
5999999.99815
6000000.0037
6000000.00053
6000000.00251
5999999.9969
5999999.99785
6000000.00058
5999999.9991
6000000.00007
5999999.99736
6000000.00303
6000000.00053
5999999.99971
6000000.00009
5999999.9984
6000000.00197
5999999.99885
6000000.00169
5999999.99628
6000000.0042
6000000.00389
5999999.99802
6000000.00159
5999999.99389
5999999.99358
6000000.00356
6000000.00289
6000000.00528
5999999.99853
5999999.99674
6000000.00471
5999999.99677
5999999.99842
5999999.99887
5999999.99893
6000000.00017
5999999.99944
6000000.0001
5999999.99971
5999999.99977
6000000.00005
5999999.99841
6000000.00132
5999999.99976
5999999.99973
6000000.00078
5999999.99927
6000000.00083
5999999.99695
5999999.99991
5999999.99998
5999999.99971
5999999.99893
5999999.9984
6000000.00167
6000000.00077
5999999.9996
6000000.00535
6000000.00239
5999999.99639
6000000.00243
5999999.99868
6000000.00516
6000000.00341
5999999.99702
5999999.99601
5999999.99877
6000000.00653
6000000.00201
5999999.99758
5999999.9972
5999999.99536
6000000.00298
5999999.99688
5999999.9954
5999999.99896
5999999.99465
6000000.00414
5999999.99738
5999999.99713
5999999.99888
6000000.00145
5999999.99743
5999999.99838
6000000.00159
6000000.00104
5999999.99741
5999999.99741
5999999.99657
5999999.99647
5999999.99687
5999999.99782
6000000.00023
5999999.9949
5999999.99448
6000000.00042
5999999.99967
5999999.99604
5999999.99625
5999999.99525
5999999.99454
6000000.00477
5999999.99786
5999999.99367
5999999.99962
5999999.99553
6000000.00185
6000000.005
5999999.99253
5999999.99431
5999999.99761
6000000.0049
6000000.0015
5999999.99855
6000000.00329
6000000.00404
5999999.99984
6000000.00614
5999999.99619
5999999.99352
6000000.00372
6000000.00149
5999999.9997
5999999.99457
5999999.99644
6000000.00276
5999999.99616
5999999.9987
6000000.0021
5999999.99896
6000000.00287
6000000.00718
6000000.00338
5999999.99952
5999999.99522
5999999.99716
6000000.00587
6000000.00227
5999999.99557
5999999.99709
6000000.00083
6000000.00631
6000000.00104
5999999.99896
5999999.99988
6000000.00207
5999999.99868
5999999.99911
6000000.00401
6000000.00224
5999999.99693
6000000.00265
5999999.99659
5999999.99967
5999999.99737
6000000.00099
6000000.00163
5999999.994
5999999.99995
6000000.00108
5999999.99409
5999999.99784
6000000.00319
5999999.99818
5999999.99813
6000000.0029
5999999.99886
5999999.99659
5999999.99613
5999999.99862
5999999.99682
5999999.99932
5999999.99782
6000000.0069
5999999.99755
6000000.00089
6000000.00535
5999999.99859
6000000.00194
6000000.00017
6000000.00882
5999999.99706
6000000.00056
6000000.00643
6000000.0071
5999999.99886
5999999.99761
6000000.01011
6000000.008
6000000.0062
5999999.99811
5999999.99776
6000000.00803
6000000.00867
6000000.00174
6000000.00677
6000000.00243
5999999.99473
6000000.00677
6000000.00822
6000000.0001
5999999.99708
6000000.00767
6000000.00267
5999999.99384
6000000.00236
6000000.00219
6000000.00909
6000000.00792
5999999.99755
6000000.0021
6000000.00739
5999999.99624
5999999.99905
6000000.00657
6000000.00946
6000000.00039
6000000.00626
6000000.0058
6000000.00486
5999999.99809
6000000.00102
6000000.00847
6000000.00953
6000000.01026
6000000.00304
6000000.00283
6000000.00642
6000000.01053
5999999.9997
6000000.00272
6000000.00583
5999999.99653
6000000.00557
6000000.00533
6000000.0098
6000000.00422
6000000.00747
6000000.00587
5999999.99347
6000000.00688
6000000.0022
5999999.99827
6000000.0088
5999999.9988
5999999.99986
5999999.99864
6000000.0005
5999999.9983
5999999.99966
5999999.99884
5999999.99953
5999999.99933
5999999.99949
5999999.99738
5999999.99783
5999999.99959
5999999.99815
6000000.00012
5999999.9982
5999999.99871
5999999.99805
6000000.00018
5999999.99802
5999999.99735
5999999.99839
5999999.99972
5999999.99849
5999999.99882
5999999.9997
5999999.99739
5999999.99851
5999999.99929
5999999.99574
5999999.99839
6000000.00029
5999999.9991
5999999.99658
5999999.99941
5999999.9976
5999999.99987
5999999.99894
5999999.99874
5999999.99669
5999999.99932
5999999.99995
5999999.99789
5999999.99939
5999999.99968
5999999.99867
5999999.99879
5999999.99924
5999999.99671
5999999.99676
5999999.99931
5999999.9999
6000000.00011
6000000.0002
5999999.9982
5999999.99908
5999999.99794
5999999.99827
5999999.99834
5999999.99864
5999999.9996
6000000.00031
6000000.00206
5999999.99834
5999999.99937
5999999.99942
5999999.99984
5999999.99965
6000000.00068
5999999.99975
5999999.99959
6000000.00041
5999999.99974
5999999.99967
5999999.99971
5999999.99976
6000000.00047
5999999.99998
5999999.99977
5999999.99958
6000000.00025
6000000.00036
5999999.99983
6000000.00029
5999999.99978
6000000.00036
5999999.99983
5999999.99973
6000000.00019
5999999.99997
6000000.00043
5999999.99978
6000000.00004
5999999.99953
6000000.00031
6000000.00044
6000000.0002
6000000.0005
5999999.99982
6000000.0005
6000000.0005
5999999.99966
6000000.00018
5999999.99977
6000000.00037
6000000.00009
5999999.99961
6000000.00058
6000000.00026
6000000.00038
6000000.0003
5999999.99946
5999999.9997
5999999.99975
6000000.0001
6000000.00009
6000000.00033
6000000.00042
5999999.99971
5999999.99994
6000000.00026
6000000.00003
6000000.00036
6000000.00013
6000000.00015
6000000.00042
5999999.99967
6000000.0006
6000000.00067
6000000.00092
6000000.00091
6000000.00102
6000000.00068
6000000.00096
6000000.00082
6000000.00124
6000000.00066
6000000.00081
6000000.00078
6000000.0008
6000000.00074
6000000.00076
6000000.00083
6000000.00092
6000000.0007
6000000.00085
6000000.00105
6000000.00085
6000000.001
6000000.0011
6000000.00066
6000000.00101
6000000.00088
6000000.00083
6000000.00069
6000000.00054
6000000.00093
6000000.00086
6000000.00077
6000000.00091
6000000.00082
6000000.00114
6000000.0007
6000000.00094
6000000.00065
6000000.00079
6000000.00054
6000000.00082
6000000.00092
6000000.00093
6000000.00099
6000000.00085
6000000.00091
6000000.0009
6000000.00071
6000000.00092
6000000.00109
6000000.00112
6000000.00073
6000000.00077
6000000.00073
6000000.00089
6000000.00095
6000000.00087
6000000.00094
6000000.00098
6000000.00098
6000000.00092
6000000.00084
6000000.00111
6000000.00131
6000000.00086
5999999.99902
5999999.99881
5999999.99892
5999999.999
5999999.99885
5999999.99931
5999999.99889
5999999.99884
5999999.99871
5999999.9988
5999999.99895
5999999.9991
5999999.99912
5999999.99893
5999999.99874
5999999.99882
5999999.99881
5999999.99902
5999999.99893
5999999.99908
5999999.99891
5999999.99885
5999999.99915
5999999.99912
5999999.99883
5999999.99895
5999999.99933
5999999.99888
5999999.99897
5999999.99906
5999999.99902
5999999.99941
5999999.99908
5999999.99914
5999999.99888
5999999.99889
5999999.99918
5999999.9988
5999999.99866
5999999.99872
5999999.99904
5999999.99911
5999999.99888
5999999.99903
5999999.99905
5999999.99897
5999999.9994
5999999.9991
5999999.99884
5999999.99902
5999999.99888
5999999.99875
5999999.99888
5999999.99872
5999999.999
5999999.99891
5999999.99905
5999999.99908
5999999.99895
5999999.99895
5999999.99892
5999999.99902
5999999.9989
5999999.99883
5999999.99953
5999999.99941
5999999.99954
5999999.99972