/*--------------------------------*- C++ -*----------------------------------*\
  =========                 |
  \\      /  F ield         | OpenFOAM: The Open Source CFD Toolbox
   \\    /   O peration     | Website:  https://openfoam.org
    \\  /    A nd           | Version:  6
     \\/     M anipulation  |
\*---------------------------------------------------------------------------*/
FoamFile
{
    version     2.0;
    format      ascii;
    class       volVectorField;
    location    "4.43e-05";
    object      U;
}
// * * * * * * * * * * * * * * * * * * * * * * * * * * * * * * * * * * * * * //

dimensions      [0 1 -1 0 0 0 0];

internalField   nonuniform List<vector> 
8192
(
(-88.3220000001 0 -2.73904258194e-10)
(-88.3219999996 0 -5.16027290057e-11)
(-88.3220000001 0 -6.70485742046e-11)
(-88.3220000002 0 -1.91178569181e-10)
(-88.3219999996 0 -5.9042678251e-11)
(-88.3219999998 0 2.40908027814e-11)
(-88.3220000002 0 -2.91209818818e-12)
(-88.322 0 5.36883876976e-11)
(-88.322 0 -2.08951561493e-10)
(-88.322 0 -5.26173682986e-10)
(-88.3219999999 0 -6.008054561e-10)
(-88.322 0 3.1634523174e-10)
(-88.3220000001 0 6.03049711069e-10)
(-88.322 0 -6.27342553131e-10)
(-88.3219999999 0 -5.82339035668e-10)
(-88.3219999999 0 3.00114631035e-10)
(-88.3219999999 0 1.89089198723e-10)
(-88.3219999999 0 5.08917643622e-10)
(-88.3220000001 0 -3.98710943108e-10)
(-88.322 0 -4.59532104098e-10)
(-88.3219999998 0 2.53123765055e-10)
(-88.3220000002 0 3.38879333134e-10)
(-88.3220000002 0 -4.62173141218e-10)
(-88.3219999999 0 -4.93805099664e-10)
(-88.322 0 1.323164407e-10)
(-88.3219999999 0 1.26271103193e-10)
(-88.3219999999 0 1.69363900378e-10)
(-88.3219999999 0 1.36641795646e-10)
(-88.3220000002 0 2.30240042301e-10)
(-88.3220000001 0 -1.12787866678e-10)
(-88.3219999999 0 1.71731545697e-10)
(-88.3219999998 0 -1.10270441314e-11)
(-88.3219999992 0 9.46813194449e-11)
(-88.3220000014 0 4.48332388395e-10)
(-88.3220000021 0 -6.52504301731e-10)
(-88.321999999 0 -5.46540538734e-10)
(-88.3219999998 0 -2.75065487891e-11)
(-88.3219999996 0 -4.93328035e-10)
(-88.3219999988 0 1.73137492402e-10)
(-88.3220000005 0 1.29046798728e-10)
(-88.3220000001 0 -1.93879345523e-11)
(-88.3219999999 0 3.24352680731e-11)
(-88.3220000001 0 -1.27221034662e-11)
(-88.322 0 -1.35560781843e-11)
(-88.322 0 -4.8901347068e-11)
(-88.322 0 -2.78822713502e-11)
(-88.322 0 -1.54295920754e-11)
(-88.322 0 -1.21365964775e-11)
(-88.322 0 9.8492441166e-12)
(-88.3219999999 0 -6.01935895844e-11)
(-88.3219999999 0 7.14720799282e-11)
(-88.3220000004 0 -2.6890011057e-11)
(-88.3219999996 0 -1.65501570088e-10)
(-88.3219999995 0 2.63576090095e-10)
(-88.322000001 0 1.51756833873e-10)
(-88.3220000005 0 -2.15285955736e-10)
(-88.3219999999 0 -4.3210420358e-11)
(-88.3219999998 0 -1.40340340038e-10)
(-88.3220000001 0 -3.47443426413e-11)
(-88.3219999993 0 -2.37088356432e-10)
(-88.3219999987 0 2.88327493887e-10)
(-88.3219999998 0 3.55245340871e-10)
(-88.3220000007 0 3.36575197048e-10)
(-88.3220000013 0 3.39433371178e-11)
(-88.322 0 -2.29358336247e-10)
(-88.3219999999 0 -6.79452091359e-11)
(-88.3220000001 0 7.76285151193e-11)
(-88.3219999998 0 4.68209402889e-12)
(-88.322 0 1.58562264867e-10)
(-88.3220000001 0 -9.73509357572e-11)
(-88.3219999997 0 2.7156945683e-11)
(-88.3220000004 0 4.06936403912e-12)
(-88.3220000011 0 -6.04361650843e-13)
(-88.3220000007 0 -4.23596721711e-11)
(-88.3219999984 0 4.50874098354e-11)
(-88.3219999977 0 -1.72486565112e-10)
(-88.3220000017 0 -1.77911586689e-11)
(-88.3220000022 0 -1.46624766917e-10)
(-88.3219999983 0 -2.45993941829e-10)
(-88.3219999986 0 2.35242163589e-10)
(-88.3219999997 0 1.47281223232e-10)
(-88.3220000013 0 1.33125357072e-10)
(-88.3220000018 0 -2.71386778443e-10)
(-88.3219999988 0 -1.62886155507e-10)
(-88.3219999987 0 -2.58230482723e-11)
(-88.3220000012 0 3.55301884251e-11)
(-88.3220000014 0 1.6083788151e-10)
(-88.321999999 0 -6.00897975292e-11)
(-88.3219999988 0 3.75308099646e-10)
(-88.322 0 -2.15676539474e-10)
(-88.3220000001 0 2.94107750814e-10)
(-88.3219999999 0 2.50503569883e-10)
(-88.3220000003 0 -1.54670958022e-11)
(-88.322 0 4.29335048872e-11)
(-88.3219999999 0 4.30680978116e-11)
(-88.3220000003 0 1.22231372497e-12)
(-88.3219999999 0 -1.68297849092e-10)
(-88.3220000002 0 -3.88009107672e-10)
(-88.322 0 4.39771343699e-10)
(-88.3219999997 0 5.35141601804e-10)
(-88.3220000001 0 -5.86657281269e-12)
(-88.322 0 2.80306872725e-10)
(-88.322 0 -1.74930391343e-10)
(-88.322 0 -1.5376679803e-10)
(-88.322 0 7.72928484236e-11)
(-88.322 0 -4.85456945001e-11)
(-88.322 0 3.16563523861e-11)
(-88.322 0 -1.35653558854e-10)
(-88.322 0 -3.68230138291e-10)
(-88.322 0 -2.92051517229e-10)
(-88.322 0 -2.90060322767e-10)
(-88.322 0 -3.1432325325e-10)
(-88.322 0 -3.23424381044e-10)
(-88.322 0 -1.06882043077e-10)
(-88.322 0 2.71809758242e-10)
(-88.3220000001 0 -6.09714920564e-11)
(-88.3219999999 0 4.19723147633e-11)
(-88.322 0 -7.47572146415e-11)
(-88.3220000001 0 -2.37949597059e-10)
(-88.322 0 3.93487349946e-10)
(-88.322 0 -1.33156537144e-10)
(-88.3220000001 0 -1.94520093711e-10)
(-88.322 0 -3.81871316558e-10)
(-88.3219999999 0 7.08123581612e-10)
(-88.322 0 2.59599799186e-10)
(-88.3220000001 0 -7.54548993847e-10)
(-88.3220000001 0 -9.5032001115e-10)
(-88.322 0 -3.96336113683e-10)
(-88.3219999995 0 4.88298633762e-11)
(-88.3219999991 0 6.02933418588e-11)
(-88.322 0 -1.84356821361e-11)
(-88.322 0 1.38276056249e-10)
(-88.3219999999 0 -9.58174257767e-11)
(-88.322 0 9.71865085072e-11)
(-88.322 0 -2.30114098589e-11)
(-88.322 0 -5.28888379179e-11)
(-88.3220000001 0 1.82252712898e-10)
(-88.3219999999 0 4.93408859123e-10)
(-88.3220000002 0 5.60305752657e-10)
(-88.3220000001 0 -2.54271174266e-10)
(-88.322 0 -5.43386736744e-10)
(-88.3220000004 0 4.94933199075e-10)
(-88.3219999991 0 5.25482130461e-10)
(-88.3219999991 0 -3.11816820252e-10)
(-88.3220000001 0 -1.95124305845e-10)
(-88.3220000007 0 -4.68938377557e-10)
(-88.3220000007 0 4.18505281308e-10)
(-88.3219999995 0 4.32638245215e-10)
(-88.3219999994 0 -2.31647139412e-10)
(-88.3219999998 0 -2.23948435972e-10)
(-88.3220000004 0 4.52343040824e-10)
(-88.3219999995 0 4.86260965423e-10)
(-88.3220000003 0 -7.074959593e-11)
(-88.322 0 -1.16258180353e-10)
(-88.321999999 0 -7.59057090506e-11)
(-88.3220000006 0 5.66649279762e-11)
(-88.3220000006 0 -1.36769254287e-11)
(-88.322 0 9.97736443413e-12)
(-88.322 0 8.9446187507e-11)
(-88.3220000003 0 -1.69735211013e-11)
(-88.322 0 -3.97684657592e-10)
(-88.322 0 3.691346342e-10)
(-88.3220000001 0 5.20041611626e-10)
(-88.322 0 -2.9301158273e-10)
(-88.3220000003 0 -5.71837782733e-10)
(-88.322 0 7.16477934782e-10)
(-88.3219999997 0 3.55962000107e-10)
(-88.322 0 -3.51903429329e-10)
(-88.322 0 -3.81199860278e-10)
(-88.322 0 1.30898632378e-10)
(-88.3220000003 0 -2.40359089436e-10)
(-88.3220000009 0 -5.49238981522e-11)
(-88.3220000003 0 -2.78123285319e-10)
(-88.3219999998 0 4.97991124567e-11)
(-88.322 0 -4.85926775736e-10)
(-88.3219999999 0 -5.65324066566e-10)
(-88.3219999996 0 3.98645096838e-10)
(-88.3219999988 0 1.32784438276e-11)
(-88.3219999999 0 -3.0145750351e-10)
(-88.3220000008 0 1.44471044984e-10)
(-88.3219999996 0 -3.90925085867e-10)
(-88.322 0 3.53540886152e-10)
(-88.322 0 3.01442843038e-11)
(-88.3220000003 0 -3.08367675977e-10)
(-88.3220000011 0 -3.08795031664e-10)
(-88.3220000004 0 -3.24591244021e-10)
(-88.3219999984 0 -1.53340635091e-10)
(-88.3219999981 0 -1.4608670724e-10)
(-88.3220000017 0 -1.35274125845e-10)
(-88.3220000022 0 7.19280285453e-11)
(-88.3219999999 0 4.04892740472e-11)
(-88.3219999999 0 5.43200794315e-11)
(-88.322 0 5.4245823599e-10)
(-88.322 0 1.5637195174e-10)
(-88.322 0 -5.05755331206e-12)
(-88.322 0 1.27950639017e-10)
(-88.322 0 -1.40150169242e-10)
(-88.322 0 2.76654085319e-11)
(-88.322 0 8.50090444067e-12)
(-88.322 0 3.037511863e-11)
(-88.322 0 1.32299743636e-11)
(-88.322 0 7.58164939106e-11)
(-88.3219999999 0 -1.39706805173e-11)
(-88.3219999998 0 1.32131010129e-10)
(-88.3220000003 0 -9.35677111367e-13)
(-88.3220000001 0 2.76498406364e-10)
(-88.3219999999 0 2.81589222353e-10)
(-88.322 0 -2.24114761211e-10)
(-88.322 0 -1.41128798934e-10)
(-88.322 0 -2.24912696415e-10)
(-88.322 0 3.80188264309e-10)
(-88.322 0 3.74514973073e-10)
(-88.322 0 -4.24661425181e-10)
(-88.3219999999 0 -5.09688689391e-10)
(-88.322 0 2.88103775025e-10)
(-88.322 0 4.2379774072e-10)
(-88.322 0 -1.66566672049e-10)
(-88.322 0 5.09800504079e-10)
(-88.3219999997 0 -1.88880320055e-10)
(-88.3219999998 0 1.12380040879e-11)
(-88.3220000004 0 -1.06799697813e-10)
(-88.3219999998 0 -1.99314244252e-10)
(-88.3219999999 0 5.20905858022e-11)
(-88.3220000012 0 -6.87892730022e-11)
(-88.3219999991 0 3.01229101523e-12)
(-88.3219999985 0 -5.69208559334e-11)
(-88.3220000013 0 3.79272759755e-11)
(-88.3220000018 0 7.73899654734e-11)
(-88.3219999982 0 -5.36655198829e-11)
(-88.3219999982 0 3.02123158172e-10)
(-88.322000002 0 -9.73809270331e-12)
(-88.3220000014 0 2.55021065975e-11)
(-88.321999999 0 -4.30076146743e-11)
(-88.3219999998 0 -9.17822321489e-12)
(-88.3220000003 0 -4.63703041809e-11)
(-88.3220000001 0 1.37723562209e-10)
(-88.3219999998 0 3.97248682991e-10)
(-88.3220000004 0 2.9068344809e-10)
(-88.3220000012 0 3.00609108355e-10)
(-88.3219999983 0 2.23025263333e-10)
(-88.321999999 0 4.36022788003e-10)
(-88.3220000013 0 1.94207299346e-10)
(-88.3219999998 0 -3.10662120843e-10)
(-88.3220000003 0 1.02541301811e-10)
(-88.3219999994 0 -1.45218690927e-10)
(-88.3219999992 0 2.46488745095e-10)
(-88.3220000013 0 4.86016901622e-10)
(-88.3220000006 0 -4.82229147359e-10)
(-88.322 0 -1.08355404145e-10)
(-88.3219999998 0 3.9398045282e-10)
(-88.3219999997 0 8.82753235165e-11)
(-88.3219999998 0 -3.9312493731e-10)
(-88.3219999996 0 -8.62229384922e-10)
(-88.3219999998 0 7.83970010341e-10)
(-88.3220000001 0 8.07091818101e-10)
(-88.322 0 6.07278564522e-10)
(-88.3220000004 0 -2.78090661749e-10)
(-88.3220000001 0 -8.31980718869e-11)
(-88.322 0 1.52311022094e-10)
(-88.3220000003 0 -2.13004640887e-11)
(-88.322 0 -3.96607206132e-11)
(-88.3219999997 0 -8.5129197136e-12)
(-88.322 0 1.10289800419e-11)
(-88.322 0 2.19473818972e-11)
(-88.322 0 1.88962396207e-11)
(-88.322 0 -2.63711166481e-12)
(-88.322 0 4.54814525057e-11)
(-88.3220000001 0 -1.84941105115e-10)
(-88.3219999998 0 -1.99652163112e-10)
(-88.3219999999 0 9.70696523023e-12)
(-88.3220000001 0 -1.82251804223e-11)
(-88.322 0 2.4234505231e-11)
(-88.3220000001 0 1.02900979951e-10)
(-88.3219999997 0 1.10543246998e-10)
(-88.3219999996 0 -1.25023481677e-11)
(-88.3220000011 0 6.9124562471e-12)
(-88.3220000011 0 1.91237817509e-11)
(-88.3219999984 0 9.469299607e-12)
(-88.3219999986 0 5.03118836334e-11)
(-88.3220000004 0 -1.1860754847e-10)
(-88.3220000001 0 8.85285980894e-11)
(-88.3220000001 0 3.4889354517e-12)
(-88.3219999999 0 2.06528928467e-10)
(-88.3220000004 0 2.49386228729e-10)
(-88.3220000009 0 3.01354934031e-10)
(-88.3219999996 0 -1.20157715336e-11)
(-88.3219999997 0 1.57753843811e-10)
(-88.3220000003 0 3.28214215543e-10)
(-88.322 0 -2.46889989513e-11)
(-88.322 0 -4.61709177306e-10)
(-88.3219999999 0 -6.69685754066e-10)
(-88.3220000001 0 9.66004010985e-11)
(-88.3219999998 0 7.2172301416e-10)
(-88.3219999999 0 -9.21238424117e-10)
(-88.3220000002 0 -2.73441279363e-10)
(-88.322 0 2.00415883962e-10)
(-88.322 0 3.34097817574e-10)
(-88.322 0 -1.13696079247e-10)
(-88.322 0 2.13213909956e-10)
(-88.322 0 5.75858272794e-11)
(-88.322 0 2.54486407171e-10)
(-88.322 0 -3.91285906133e-11)
(-88.3220000001 0 4.83159079781e-10)
(-88.3219999998 0 4.98029669925e-10)
(-88.3219999997 0 -3.51115380594e-10)
(-88.3220000003 0 -8.73561207466e-11)
(-88.322 0 2.31371475499e-10)
(-88.3220000005 0 -2.13932527684e-11)
(-88.3219999994 0 3.14270139351e-10)
(-88.3219999988 0 -3.37508260764e-10)
(-88.3220000014 0 -4.63663372297e-11)
(-88.3220000014 0 -2.09329564634e-10)
(-88.3219999993 0 9.04089383846e-11)
(-88.322 0 1.2274168158e-10)
(-88.3219999998 0 -3.02573997432e-10)
(-88.322 0 6.65736720597e-10)
(-88.3219999993 0 5.30285034378e-10)
(-88.3219999989 0 3.4300185699e-10)
(-88.3220000002 0 1.46740242468e-10)
(-88.3220000003 0 1.84912928552e-11)
(-88.3220000002 0 -7.52155753823e-11)
(-88.3219999992 0 -1.67312397043e-10)
(-88.322 0 3.19673672641e-10)
(-88.3220000003 0 5.30379971153e-10)
(-88.322 0 -5.04487313563e-11)
(-88.3219999999 0 4.11086694921e-10)
(-88.322 0 3.33538516419e-10)
(-88.322 0 -3.57117263052e-10)
(-88.322 0 8.40401312471e-13)
(-88.3219999999 0 8.09092020559e-11)
(-88.3220000002 0 -2.49887198512e-11)
(-88.3220000002 0 1.26070780207e-10)
(-88.3219999999 0 1.42563164212e-10)
(-88.3219999999 0 -3.88023291928e-10)
(-88.3219999999 0 4.54820831492e-10)
(-88.3219999998 0 3.71622761205e-10)
(-88.3219999998 0 4.30244527771e-10)
(-88.3220000002 0 1.09250906831e-10)
(-88.3220000002 0 -5.29453728854e-10)
(-88.322 0 -2.20030959518e-10)
(-88.3219999999 0 7.84207883726e-10)
(-88.3219999999 0 9.64004687278e-10)
(-88.3220000003 0 -5.39834220171e-10)
(-88.3219999999 0 -5.5023322101e-10)
(-88.3219999998 0 -3.73912931146e-10)
(-88.3219999998 0 -1.37261421015e-11)
(-88.3219999993 0 1.07003287778e-10)
(-88.3219999996 0 -3.42565830637e-10)
(-88.322000001 0 4.33697530412e-10)
(-88.3220000001 0 5.41932849106e-10)
(-88.3219999993 0 -5.48853501593e-11)
(-88.3220000017 0 -3.35907351852e-10)
(-88.3220000006 0 7.93600755041e-11)
(-88.3219999996 0 1.10463714797e-10)
(-88.3220000002 0 9.58430338251e-11)
(-88.3219999991 0 -8.2364257601e-11)
(-88.3220000002 0 -6.43047107265e-12)
(-88.3220000001 0 -4.52096105431e-11)
(-88.3219999999 0 7.84156882072e-12)
(-88.3220000002 0 3.35202222923e-11)
(-88.3219999997 0 3.09610959055e-11)
(-88.322 0 -1.33479333619e-11)
(-88.322 0 7.91333103166e-12)
(-88.322 0 6.60979017377e-12)
(-88.322 0 5.8218274406e-12)
(-88.322 0 1.1480871565e-11)
(-88.3220000001 0 -4.84647627313e-11)
(-88.3219999999 0 2.25392016443e-10)
(-88.3220000001 0 -1.51302002917e-10)
(-88.3220000001 0 -6.7148072893e-11)
(-88.3219999997 0 -9.7152036239e-12)
(-88.3220000002 0 2.73178821025e-11)
(-88.322 0 2.30939604286e-10)
(-88.3219999999 0 -3.98217710194e-10)
(-88.3220000011 0 -3.97621856236e-10)
(-88.3220000002 0 2.88023286538e-10)
(-88.3219999994 0 2.72470545277e-10)
(-88.3220000006 0 3.23152106621e-11)
(-88.3219999986 0 3.42130172665e-10)
(-88.3219999982 0 -7.27621732931e-11)
(-88.3220000002 0 3.69784671164e-10)
(-88.3220000005 0 -2.69698225024e-10)
(-88.3220000007 0 -7.51309203703e-11)
(-88.3220000008 0 -2.18635918047e-10)
(-88.3220000003 0 4.0137219666e-10)
(-88.3219999993 0 2.14834575995e-11)
(-88.3219999987 0 -1.8794258151e-10)
(-88.3220000011 0 3.34561909267e-11)
(-88.3220000002 0 1.91386660745e-11)
(-88.3219999989 0 3.57151090017e-11)
(-88.3220000016 0 -6.39307138677e-11)
(-88.3220000007 0 4.85375466258e-11)
(-88.3219999992 0 -1.2620436575e-10)
(-88.3220000001 0 -1.57093115302e-10)
(-88.3219999999 0 3.90290865897e-10)
(-88.3219999998 0 -3.73501474691e-10)
(-88.3220000009 0 -3.65507610195e-10)
(-88.3219999993 0 -6.17423667614e-11)
(-88.3219999986 0 -1.15547211136e-10)
(-88.322 0 -1.21261804433e-11)
(-88.3220000007 0 -1.68056375726e-10)
(-88.3220000016 0 -9.13178290957e-11)
(-88.3220000001 0 1.87162918709e-11)
(-88.3219999985 0 -2.35317868286e-12)
(-88.3219999988 0 2.22369041223e-12)
(-88.322000001 0 -1.69079201369e-11)
(-88.3220000016 0 -1.59918800876e-12)
(-88.322 0 3.9998389274e-11)
(-88.321999999 0 -6.69722762382e-11)
(-88.3219999992 0 3.95212784088e-11)
(-88.3220000006 0 -2.51179358861e-10)
(-88.3219999997 0 -2.89737866068e-10)
(-88.3219999992 0 -4.88432826614e-10)
(-88.3220000006 0 2.13690993251e-10)
(-88.3220000015 0 -3.83845586623e-10)
(-88.3220000001 0 -3.42566056841e-10)
(-88.3219999991 0 7.07954814136e-10)
(-88.3219999999 0 1.80216736366e-10)
(-88.3220000003 0 -1.24723314108e-10)
(-88.3220000003 0 -3.50317389967e-10)
(-88.3219999998 0 -1.39783294811e-10)
(-88.3219999999 0 5.53301311866e-10)
(-88.322 0 -1.0951554921e-10)
(-88.322 0 -1.03477001411e-10)
(-88.322 0 3.11465662791e-11)
(-88.322 0 6.18526395152e-11)
(-88.322 0 -1.30598839025e-10)
(-88.322 0 4.23110643875e-11)
(-88.322 0 2.82907515802e-11)
(-88.3220000001 0 5.01894443957e-12)
(-88.3219999997 0 -5.3929483554e-12)
(-88.322 0 -1.77412451289e-11)
(-88.3220000003 0 2.2460595697e-11)
(-88.322 0 -2.1712468647e-11)
(-88.3219999999 0 8.05916042351e-11)
(-88.3220000001 0 -3.22124020879e-11)
(-88.3220000002 0 6.79219149775e-11)
(-88.3219999999 0 -7.39515794558e-11)
(-88.322 0 4.44525821061e-11)
(-88.3220000001 0 3.2067914105e-10)
(-88.3219999999 0 5.73224728742e-11)
(-88.3219999999 0 7.16746287326e-11)
(-88.3220000001 0 4.47595927997e-10)
(-88.3219999999 0 -4.50550333461e-10)
(-88.3219999998 0 -3.69353789926e-10)
(-88.3219999998 0 7.98615562222e-11)
(-88.3220000001 0 2.05922272027e-10)
(-88.3220000003 0 -9.23152475123e-11)
(-88.322 0 7.17663477556e-11)
(-88.3220000003 0 1.61176647978e-10)
(-88.3219999999 0 -3.05222718067e-10)
(-88.3219999999 0 -5.46166250372e-10)
(-88.322 0 2.0390890182e-10)
(-88.3220000001 0 -4.25074493013e-10)
(-88.3219999999 0 -3.46300781043e-10)
(-88.3220000001 0 3.54660989934e-10)
(-88.3220000004 0 -6.48573777126e-12)
(-88.3219999988 0 -1.06684854018e-10)
(-88.3220000007 0 5.26222980204e-11)
(-88.3220000018 0 -1.28011471153e-10)
(-88.3219999993 0 -9.87724487868e-11)
(-88.3219999993 0 3.03475051723e-10)
(-88.3219999997 0 -4.56359536834e-10)
(-88.3219999999 0 -3.40150589714e-10)
(-88.3219999999 0 -4.17091697664e-10)
(-88.3219999999 0 -2.92564310706e-11)
(-88.3220000001 0 3.78638253171e-10)
(-88.322 0 2.88453565474e-11)
(-88.322 0 -3.511546534e-10)
(-88.3219999999 0 -5.84641954072e-10)
(-88.3220000002 0 1.5244161758e-10)
(-88.322 0 2.08077002472e-10)
(-88.3219999998 0 1.71789367452e-10)
(-88.3220000002 0 -2.61093646618e-10)
(-88.3219999999 0 -2.54103344919e-10)
(-88.3220000001 0 3.57912769288e-11)
(-88.322 0 -4.20896341603e-10)
(-88.322 0 -3.7709083849e-10)
(-88.3220000002 0 -1.06279450788e-10)
(-88.3219999995 0 3.83126632692e-10)
(-88.3219999997 0 -5.83430425891e-11)
(-88.3220000013 0 -6.20902952585e-11)
(-88.3220000013 0 -9.50942259977e-11)
(-88.3219999991 0 -3.97463555319e-11)
(-88.3219999983 0 1.71186582738e-10)
(-88.322 0 -2.90676748996e-11)
(-88.3220000012 0 4.78261835276e-11)
(-88.322 0 -2.45247568803e-11)
(-88.3219999994 0 -1.29372604362e-11)
(-88.3220000003 0 3.00424306058e-11)
(-88.322 0 -1.23159629081e-13)
(-88.3219999997 0 -9.7194502254e-12)
(-88.3220000001 0 -3.06344181053e-11)
(-88.322 0 -2.18798653469e-11)
(-88.3220000001 0 3.56508712857e-11)
(-88.3219999999 0 -1.46810770999e-10)
(-88.3220000001 0 2.97881852552e-11)
(-88.322 0 7.42149216287e-11)
(-88.3219999997 0 -1.12218637936e-10)
(-88.3220000001 0 -9.97589101932e-11)
(-88.322 0 6.54987140886e-11)
(-88.3219999999 0 4.77102505357e-10)
(-88.3220000004 0 4.88854426794e-10)
(-88.3220000002 0 -2.92554708029e-10)
(-88.3219999999 0 -2.90672711192e-10)
(-88.3219999999 0 -1.56807708793e-10)
(-88.3219999997 0 -4.07298752186e-10)
(-88.3219999998 0 1.39098226655e-10)
(-88.3219999992 0 -3.72761126757e-10)
(-88.3219999994 0 3.36242602458e-10)
(-88.3220000011 0 -1.25251751821e-10)
(-88.3220000004 0 1.13034054188e-10)
(-88.3220000002 0 -2.27786718845e-10)
(-88.3220000001 0 -1.45033625726e-11)
(-88.322 0 -3.83964810729e-11)
(-88.322 0 -1.29726490014e-11)
(-88.322 0 -6.12761716687e-11)
(-88.322 0 6.21765890309e-11)
(-88.322 0 2.95976528528e-11)
(-88.322 0 -7.44969682882e-11)
(-88.3220000001 0 1.2100701032e-10)
(-88.322 0 1.44696000537e-10)
(-88.322 0 -4.35126104707e-10)
(-88.322 0 5.07064536019e-10)
(-88.322 0 5.2532483486e-10)
(-88.322 0 9.44210012971e-11)
(-88.322 0 1.15508424612e-10)
(-88.322 0 -1.03335080838e-11)
(-88.322 0 6.18696092663e-11)
(-88.322 0 -1.12294353267e-11)
(-88.322 0 7.22301914929e-12)
(-88.322 0 2.03181339232e-12)
(-88.322 0 -1.91675484409e-11)
(-88.322 0 1.74605934279e-11)
(-88.322 0 1.1122887229e-12)
(-88.322 0 9.65503449104e-11)
(-88.322 0 -3.73102692739e-11)
(-88.322 0 -3.9556172693e-11)
(-88.322 0 4.42043148932e-11)
(-88.322 0 -2.38665484245e-11)
(-88.322 0 2.15970619754e-11)
(-88.322 0 -1.32180173637e-10)
(-88.322 0 3.81210483511e-11)
(-88.322 0 -4.61349293946e-11)
(-88.322 0 -7.43023622314e-11)
(-88.322 0 2.13910653702e-10)
(-88.3220000002 0 -8.06416474376e-11)
(-88.3219999999 0 1.22653114002e-10)
(-88.3219999998 0 -1.43409185818e-10)
(-88.3220000001 0 -6.84797010145e-10)
(-88.322 0 1.3101879941e-10)
(-88.322 0 2.66740396007e-10)
(-88.322 0 -6.56699106266e-12)
(-88.322 0 -6.136139464e-11)
(-88.322 0 1.38407906586e-10)
(-88.322 0 -6.43323328785e-11)
(-88.322 0 -2.36314008775e-11)
(-88.322 0 -1.75153706444e-11)
(-88.322 0 -4.34748123489e-11)
(-88.322 0 9.8388043045e-11)
(-88.3219999999 0 -8.0094846428e-12)
(-88.3220000002 0 1.47277036004e-10)
(-88.3220000002 0 -3.76837323316e-11)
(-88.3219999997 0 -5.0595498292e-11)
(-88.3219999991 0 -1.190719264e-10)
(-88.3219999991 0 7.09333768279e-11)
(-88.3220000016 0 1.047669191e-10)
(-88.3220000017 0 -2.41236321978e-10)
(-88.3219999995 0 -9.6836107946e-11)
(-88.3220000001 0 -8.0802592232e-11)
(-88.3219999995 0 -8.14593881338e-11)
(-88.3219999998 0 3.21827309232e-11)
(-88.3219999994 0 6.06923748566e-11)
(-88.3219999993 0 -9.30118871281e-10)
(-88.3220000005 0 -7.13026638837e-10)
(-88.322 0 -2.18882277982e-10)
(-88.3219999997 0 8.53995064558e-11)
(-88.322 0 1.14110803432e-10)
(-88.3219999999 0 -1.24793393995e-10)
(-88.322 0 -4.01834288807e-11)
(-88.3219999998 0 4.64026027603e-11)
(-88.3219999999 0 4.54545944992e-11)
(-88.3220000002 0 -9.14704251225e-11)
(-88.322 0 -1.03303828406e-10)
(-88.322 0 -3.32004349751e-11)
(-88.322 0 -4.46127261515e-11)
(-88.322 0 -7.38249850768e-12)
(-88.3219999999 0 -1.4719636168e-11)
(-88.3220000001 0 -4.98147882133e-12)
(-88.3220000001 0 -1.89945877154e-11)
(-88.3219999999 0 -2.50518401891e-11)
(-88.322 0 -3.09555804329e-11)
(-88.322 0 -2.40319712936e-11)
(-88.322 0 -9.47808262254e-12)
(-88.322 0 3.77600324623e-11)
(-88.322 0 -1.54233652164e-10)
(-88.3219999999 0 -6.02592298805e-11)
(-88.3219999999 0 3.96399837499e-10)
(-88.322 0 2.92537778175e-10)
(-88.3220000001 0 -4.21569190488e-10)
(-88.3220000001 0 -3.3264343048e-10)
(-88.322 0 -1.20019721442e-10)
(-88.3219999999 0 4.96637936834e-11)
(-88.3220000001 0 -1.32508347924e-10)
(-88.3220000002 0 9.37963800517e-11)
(-88.322 0 -1.36558325664e-10)
(-88.3220000001 0 -3.87786928392e-10)
(-88.3219999998 0 -2.84546607618e-10)
(-88.3219999992 0 1.56955446036e-10)
(-88.3220000012 0 -3.76041821598e-10)
(-88.3220000014 0 -4.23455873445e-10)
(-88.3219999993 0 -3.93217603009e-10)
(-88.3219999999 0 4.11999033273e-10)
(-88.3219999995 0 3.23692340176e-10)
(-88.3219999992 0 -3.51382770263e-10)
(-88.3220000002 0 -2.42207175187e-10)
(-88.322 0 4.57292218431e-10)
(-88.322 0 9.36494051661e-11)
(-88.322 0 -2.95212022549e-10)
(-88.322 0 -4.86814303119e-10)
(-88.322 0 2.42204018112e-10)
(-88.3220000001 0 -2.29168960037e-10)
(-88.3219999999 0 -4.79677925517e-11)
(-88.3219999998 0 -4.80435851338e-10)
(-88.322 0 4.2009071498e-10)
(-88.3220000001 0 -8.68519108974e-11)
(-88.322 0 5.18134584295e-11)
(-88.3220000004 0 1.91088902385e-10)
(-88.3219999998 0 -3.35221563493e-10)
(-88.3219999995 0 -7.97653673254e-10)
(-88.322000001 0 -9.23912622386e-10)
(-88.3220000006 0 -3.24816351631e-10)
(-88.3219999996 0 8.5714933773e-10)
(-88.3219999998 0 5.12789871577e-10)
(-88.3219999994 0 -6.99109954077e-11)
(-88.3219999995 0 -5.73376843472e-10)
(-88.3220000011 0 6.12020037309e-10)
(-88.3220000009 0 -2.05438430829e-11)
(-88.3219999996 0 -1.54356978435e-10)
(-88.3219999996 0 -1.19529098391e-11)
(-88.322 0 1.01415906302e-10)
(-88.3220000005 0 5.8609205448e-11)
(-88.3220000003 0 1.65632332405e-10)
(-88.3219999997 0 -1.89122163308e-10)
(-88.3219999999 0 1.3221513981e-10)
(-88.3220000003 0 -2.19499013662e-10)
(-88.3220000002 0 1.56651072515e-10)
(-88.3219999999 0 1.88666401092e-10)
(-88.322 0 -1.72176652689e-10)
(-88.3219999999 0 -3.70420542784e-10)
(-88.322 0 -1.44196342816e-10)
(-88.322 0 -4.13444249586e-10)
(-88.322 0 -4.18064845286e-10)
(-88.322 0 -1.82948761941e-10)
(-88.322 0 7.47007837054e-11)
(-88.322 0 3.14196019308e-11)
(-88.322 0 7.90453631069e-11)
(-88.3219999999 0 -2.83782449792e-10)
(-88.3220000003 0 -6.00493597134e-10)
(-88.3220000002 0 2.7880467916e-10)
(-88.3219999989 0 2.94685871534e-10)
(-88.3219999993 0 6.74112659254e-10)
(-88.3220000017 0 -3.91763319136e-10)
(-88.3220000012 0 -3.36053966166e-10)
(-88.3219999994 0 2.61642742417e-10)
(-88.3219999993 0 2.44166391935e-10)
(-88.322 0 2.47871714272e-10)
(-88.322 0 1.00766855841e-10)
(-88.3220000001 0 2.38243042199e-10)
(-88.3220000009 0 9.61002789243e-11)
(-88.3220000002 0 1.18312801244e-11)
(-88.3219999989 0 7.86665397392e-11)
(-88.3220000002 0 -1.07256515962e-10)
(-88.3220000011 0 -3.64609862026e-10)
(-88.3220000003 0 4.59265890334e-10)
(-88.3219999982 0 6.52634981064e-10)
(-88.3219999983 0 3.97124390552e-10)
(-88.3220000015 0 6.49524937197e-10)
(-88.3220000011 0 -3.85032657631e-10)
(-88.3219999985 0 -1.43000038925e-11)
(-88.3219999993 0 9.44886941815e-12)
(-88.3220000015 0 -4.3813520289e-11)
(-88.3220000011 0 4.71287299288e-11)
(-88.3219999989 0 -6.47600624993e-11)
(-88.3219999995 0 2.80797981161e-11)
(-88.3220000005 0 -9.27689498701e-11)
(-88.3220000005 0 -2.36116970363e-10)
(-88.321999999 0 1.9733691563e-10)
(-88.3219999991 0 2.64573261395e-10)
(-88.322000001 0 3.45954016407e-10)
(-88.3219999996 0 -3.10771096685e-10)
(-88.3220000004 0 -3.23753205715e-10)
(-88.3220000009 0 5.27893089403e-10)
(-88.3220000002 0 5.26503597843e-11)
(-88.3220000007 0 9.63256938489e-11)
(-88.3219999983 0 3.27125553227e-10)
(-88.3219999979 0 4.91229271884e-10)
(-88.3220000019 0 5.42576156772e-10)
(-88.3220000015 0 -1.89622908391e-10)
(-88.3219999984 0 -2.76823745663e-10)
(-88.3219999983 0 -1.82796048389e-10)
(-88.3220000008 0 3.9709819648e-10)
(-88.3220000005 0 3.30361638192e-10)
(-88.3219999995 0 2.55892174448e-10)
(-88.322 0 -1.44951238419e-10)
(-88.3219999999 0 -1.85745621323e-10)
(-88.3220000003 0 1.00710777761e-10)
(-88.322 0 -2.25026328267e-11)
(-88.3219999999 0 -3.91751003606e-11)
(-88.3219999999 0 -7.85516015668e-11)
(-88.3219999994 0 8.0234228882e-11)
(-88.3220000006 0 6.71824365755e-11)
(-88.3220000011 0 2.6605963091e-11)
(-88.3219999999 0 -2.47783355678e-11)
(-88.322 0 -2.10764204199e-10)
(-88.3220000004 0 -3.32489093319e-11)
(-88.3219999997 0 -6.41420362782e-11)
(-88.3219999991 0 -7.58221954091e-11)
(-88.3219999995 0 5.29310641785e-11)
(-88.322 0 -7.12604617771e-11)
(-88.3220000006 0 -1.23343051292e-11)
(-88.3220000014 0 6.64133166484e-12)
(-88.321999999 0 -6.20625133331e-11)
(-88.3219999982 0 1.70680406492e-10)
(-88.3219999991 0 1.34828161931e-11)
(-88.3220000013 0 -2.92999595214e-10)
(-88.322000002 0 -2.05282611296e-10)
(-88.3219999989 0 3.0467790011e-10)
(-88.3219999989 0 4.06259533218e-10)
(-88.322 0 1.26173542109e-10)
(-88.3220000001 0 -3.88858400021e-11)
(-88.3220000001 0 1.36870433701e-10)
(-88.3220000002 0 -6.84461742131e-11)
(-88.3220000004 0 1.4625193091e-10)
(-88.3220000001 0 3.87517842095e-10)
(-88.322 0 2.85735828789e-10)
(-88.3219999999 0 -1.6296364067e-10)
(-88.3220000002 0 4.47994642671e-10)
(-88.3219999996 0 2.92109557567e-10)
(-88.3219999993 0 5.4403466852e-10)
(-88.322 0 -4.56187988285e-10)
(-88.322000001 0 -3.16677950627e-10)
(-88.3220000005 0 4.75825322861e-10)
(-88.3219999995 0 2.2803543238e-10)
(-88.322 0 -4.54070484647e-10)
(-88.322 0 -8.7032806278e-11)
(-88.3220000001 0 2.84077440252e-10)
(-88.322 0 5.00671310382e-10)
(-88.322 0 -3.45207816234e-10)
(-88.3220000006 0 2.08859186454e-10)
(-88.3219999994 0 2.00345477737e-11)
(-88.3219999988 0 4.80231481042e-10)
(-88.3219999997 0 -4.38757583357e-10)
(-88.3220000013 0 2.2232495301e-11)
(-88.3220000014 0 1.03770565016e-10)
(-88.3219999987 0 -4.1598874533e-10)
(-88.3219999991 0 1.00167385719e-10)
(-88.3220000003 0 6.55534462335e-10)
(-88.3220000004 0 6.12291896209e-10)
(-88.3219999999 0 3.48271757783e-10)
(-88.3219999993 0 -3.94879525096e-10)
(-88.3220000011 0 -5.29684781481e-10)
(-88.3220000009 0 4.50208928853e-10)
(-88.3219999996 0 3.94232199667e-10)
(-88.3219999998 0 -3.0458726263e-10)
(-88.322 0 -4.44411434849e-10)
(-88.3219999999 0 1.0885351278e-10)
(-88.322 0 -1.51191915794e-10)
(-88.322 0 -2.37288940249e-11)
(-88.322 0 8.42211813203e-11)
(-88.322 0 -1.39393515303e-10)
(-88.322 0 1.70912011457e-10)
(-88.322 0 -6.7028221456e-11)
(-88.322 0 1.42741919119e-10)
(-88.322 0 -1.72703255548e-10)
(-88.322 0 -1.00233758074e-10)
(-88.3220000001 0 -1.54825513859e-10)
(-88.3220000003 0 8.86763180192e-12)
(-88.322 0 2.82039240821e-10)
(-88.3219999997 0 1.53158176793e-10)
(-88.3220000001 0 -1.05742892301e-10)
(-88.3219999998 0 -2.28134382211e-10)
(-88.322 0 9.15331154463e-11)
(-88.3220000001 0 1.22910179662e-10)
(-88.3219999998 0 -1.57627769212e-10)
(-88.322 0 3.05958173815e-10)
(-88.322 0 5.95588420137e-10)
(-88.3220000001 0 -2.64715678696e-10)
(-88.3219999998 0 -3.04805732591e-10)
(-88.3219999998 0 -6.91995368407e-10)
(-88.3220000004 0 3.2469974666e-10)
(-88.322 0 3.10951652948e-10)
(-88.3219999998 0 -2.75361549342e-10)
(-88.3220000001 0 -2.44892435735e-10)
(-88.322 0 -2.68970885254e-10)
(-88.322 0 -1.70963811695e-10)
(-88.322 0 -1.80912545468e-10)
(-88.322 0 -9.03341274956e-11)
(-88.322 0 7.98219713963e-11)
(-88.322 0 1.04348554755e-10)
(-88.3219999998 0 -1.33119419583e-10)
(-88.3220000002 0 2.68968517447e-10)
(-88.3220000002 0 -2.79931398103e-10)
(-88.3219999997 0 -5.29592562827e-10)
(-88.322 0 -4.37715826271e-10)
(-88.3219999998 0 -7.31829589851e-11)
(-88.3220000001 0 -1.07985167417e-10)
(-88.3220000004 0 -4.04215277738e-10)
(-88.3219999999 0 2.24181239706e-10)
(-88.322 0 2.93995420768e-10)
(-88.322 0 -3.38679348605e-10)
(-88.3220000002 0 2.80911365638e-11)
(-88.3220000001 0 -4.54457040272e-10)
(-88.3219999998 0 -4.06366509072e-10)
(-88.322 0 6.61018832735e-11)
(-88.3219999999 0 -6.34239107135e-10)
(-88.322 0 -3.71175980263e-10)
(-88.3219999999 0 -3.89750488845e-10)
(-88.3220000005 0 2.09146229558e-10)
(-88.3220000005 0 2.88578828315e-10)
(-88.3219999989 0 -4.51760920597e-10)
(-88.3219999992 0 -6.83377847703e-11)
(-88.3220000013 0 -4.03998993604e-10)
(-88.3220000003 0 2.52128799813e-10)
(-88.3219999997 0 -4.07248397717e-10)
(-88.3220000003 0 -7.65846816103e-10)
(-88.3219999998 0 -2.11106295325e-10)
(-88.3219999999 0 5.52561080798e-11)
(-88.322 0 2.39955894898e-10)
(-88.322 0 3.34789154339e-11)
(-88.322 0 3.9397680297e-13)