/*--------------------------------*- C++ -*----------------------------------*\
  =========                 |
  \\      /  F ield         | OpenFOAM: The Open Source CFD Toolbox
   \\    /   O peration     | Website:  https://openfoam.org
    \\  /    A nd           | Version:  6
     \\/     M anipulation  |
\*---------------------------------------------------------------------------*/
FoamFile
{
    version     2.0;
    format      ascii;
    class       volVectorField;
    location    "5.02e-05";
    object      U;
}
// * * * * * * * * * * * * * * * * * * * * * * * * * * * * * * * * * * * * * //

dimensions      [0 1 -1 0 0 0 0];

internalField   nonuniform List<vector> 
8192
(
(-88.3219999999 0 -2.95898047651e-10)
(-88.3219999996 0 -1.02829031714e-10)
(-88.3220000002 0 -7.44967993876e-11)
(-88.3220000004 0 -3.30623225682e-10)
(-88.3219999994 0 -6.83927673961e-11)
(-88.3219999996 0 -1.2020950052e-11)
(-88.3220000003 0 -4.17306077598e-12)
(-88.3219999999 0 1.55351605688e-10)
(-88.322 0 -2.98902334946e-10)
(-88.322 0 -6.07713059586e-10)
(-88.3219999999 0 -7.78373772834e-10)
(-88.322 0 3.92137487248e-10)
(-88.3220000002 0 6.89768357287e-10)
(-88.3220000001 0 -8.21824055934e-10)
(-88.3219999998 0 -6.48202750098e-10)
(-88.3219999998 0 3.97846166109e-10)
(-88.3219999997 0 3.71501145204e-10)
(-88.3219999998 0 7.59199415687e-10)
(-88.3220000003 0 -4.38316421581e-10)
(-88.3219999999 0 -6.32340074203e-10)
(-88.3219999996 0 2.63344142438e-10)
(-88.3220000004 0 4.06773892907e-10)
(-88.3220000004 0 -6.8831036569e-10)
(-88.3219999997 0 -6.10928621679e-10)
(-88.322 0 2.027838923e-10)
(-88.3219999998 0 2.15401755818e-10)
(-88.3219999998 0 2.73847301455e-10)
(-88.3219999999 0 2.26120553008e-10)
(-88.3220000002 0 3.55141011629e-10)
(-88.3220000002 0 -1.88569807211e-10)
(-88.322 0 2.44448835487e-10)
(-88.3219999995 0 -8.86819275868e-11)
(-88.3219999988 0 1.45051059742e-10)
(-88.3220000021 0 5.93175962625e-10)
(-88.322000003 0 -9.51631883343e-10)
(-88.3219999986 0 -6.75151017213e-10)
(-88.3219999994 0 -6.12662899987e-12)
(-88.3219999996 0 -6.01762293014e-10)
(-88.3219999984 0 1.66577825695e-10)
(-88.3220000007 0 2.04639924186e-10)
(-88.3220000001 0 -8.66821807356e-11)
(-88.3219999997 0 8.61866108778e-11)
(-88.3220000002 0 -1.76740669441e-11)
(-88.322 0 -1.61425618458e-11)
(-88.322 0 -6.56757066908e-11)
(-88.322 0 -4.51905236546e-11)
(-88.322 0 -2.43570135345e-11)
(-88.3219999999 0 -2.07165854139e-11)
(-88.3220000001 0 3.77414343972e-11)
(-88.3219999998 0 -1.16155015253e-10)
(-88.3219999999 0 1.64117036488e-10)
(-88.3220000007 0 -9.01059234071e-11)
(-88.3219999993 0 -2.38181845633e-10)
(-88.3219999992 0 3.99324624021e-10)
(-88.3220000013 0 2.21232509111e-10)
(-88.3220000007 0 -1.97467461622e-10)
(-88.322 0 -2.30276688163e-11)
(-88.3219999998 0 -1.94343944953e-10)
(-88.3220000002 0 -5.28159138218e-11)
(-88.3219999991 0 -3.44364934107e-10)
(-88.3219999982 0 3.73113188284e-10)
(-88.3219999998 0 4.20961167224e-10)
(-88.322000001 0 3.75147835253e-10)
(-88.3220000014 0 -7.06111272325e-11)
(-88.3220000001 0 -3.89475612599e-10)
(-88.3219999998 0 -1.00839272106e-10)
(-88.3220000002 0 1.66061939973e-10)
(-88.3219999996 0 2.613492794e-11)
(-88.3219999999 0 3.17176840156e-10)
(-88.3220000002 0 -1.26506262032e-10)
(-88.3219999993 0 6.92825046935e-11)
(-88.3220000006 0 1.98381515609e-12)
(-88.3220000015 0 -1.14401760418e-11)
(-88.3220000009 0 -7.23288665662e-11)
(-88.3219999981 0 8.01623734106e-11)
(-88.321999997 0 -2.80559639555e-10)
(-88.3220000022 0 -2.82266562292e-11)
(-88.3220000026 0 -2.05662640192e-10)
(-88.3219999978 0 -3.49814186177e-10)
(-88.3219999981 0 3.53408670442e-10)
(-88.3219999995 0 2.7128253445e-10)
(-88.3220000018 0 1.52104595258e-10)
(-88.3220000025 0 -3.75049668283e-10)
(-88.3219999988 0 -2.11563566061e-10)
(-88.3219999983 0 -7.53006019777e-11)
(-88.3220000015 0 -4.10378571222e-11)
(-88.3220000017 0 2.30516785746e-10)
(-88.3219999985 0 -7.19996618449e-11)
(-88.3219999984 0 4.84562071622e-10)
(-88.322 0 -1.77989440047e-10)
(-88.3220000001 0 3.13813222026e-10)
(-88.3219999999 0 3.16984213481e-10)
(-88.3220000007 0 -1.05132045153e-10)
(-88.322 0 -1.89458617483e-11)
(-88.3219999998 0 1.01023795225e-10)
(-88.3220000006 0 3.7074833514e-11)
(-88.3219999997 0 -2.722267265e-10)
(-88.3220000003 0 -4.99183802413e-10)
(-88.322 0 6.3198075861e-10)
(-88.3219999994 0 7.05067198518e-10)
(-88.3220000002 0 1.44641763332e-11)
(-88.322 0 3.19641288436e-10)
(-88.322 0 -1.62536983262e-10)
(-88.322 0 -2.65763536808e-10)
(-88.322 0 2.17451809244e-10)
(-88.3220000001 0 -1.16476605524e-10)
(-88.322 0 1.00060390576e-10)
(-88.322 0 -2.40836799497e-10)
(-88.322 0 -4.11180370352e-10)
(-88.322 0 -3.63162532339e-10)
(-88.322 0 -3.52140202556e-10)
(-88.322 0 -4.53857344133e-10)
(-88.322 0 -4.00678243274e-10)
(-88.322 0 -6.33275129733e-11)
(-88.3220000001 0 3.21996574658e-10)
(-88.3220000001 0 -1.08209399756e-10)
(-88.3219999997 0 6.8667621622e-11)
(-88.322 0 -1.25301300837e-10)
(-88.3220000001 0 -3.25094594124e-10)
(-88.3219999999 0 4.24416546517e-10)
(-88.322 0 -2.07889391719e-10)
(-88.3220000002 0 -1.37368778326e-10)
(-88.322 0 -3.78563691352e-10)
(-88.3219999999 0 1.01957945523e-09)
(-88.322 0 3.78859912106e-10)
(-88.3220000002 0 -8.46759093089e-10)
(-88.3220000002 0 -1.17815365124e-09)
(-88.3220000001 0 -4.69074845515e-10)
(-88.3219999992 0 9.7475654582e-11)
(-88.3219999986 0 1.39059292966e-10)
(-88.322 0 -4.13613894215e-11)
(-88.3220000001 0 2.33073299606e-10)
(-88.3219999998 0 -1.99702918803e-10)
(-88.3220000001 0 1.77537329187e-10)
(-88.322 0 -5.79563773441e-11)
(-88.3220000001 0 -1.42757468788e-10)
(-88.3220000002 0 2.6323067497e-10)
(-88.3219999998 0 5.62326157407e-10)
(-88.3220000003 0 7.4046747741e-10)
(-88.3220000002 0 -2.53418220116e-10)
(-88.322 0 -5.73393530373e-10)
(-88.3220000006 0 5.60075708253e-10)
(-88.3219999987 0 5.80925521184e-10)
(-88.3219999986 0 -4.2503515895e-10)
(-88.3220000002 0 -3.75878143627e-10)
(-88.3220000011 0 -6.6943453801e-10)
(-88.322000001 0 4.75024748764e-10)
(-88.3219999994 0 5.82007777507e-10)
(-88.3219999992 0 -2.18444189697e-10)
(-88.3219999998 0 -2.0575986735e-10)
(-88.3220000004 0 6.46079308588e-10)
(-88.3219999993 0 6.07133199239e-10)
(-88.3220000002 0 -1.06409296338e-10)
(-88.3220000001 0 -2.0067498772e-10)
(-88.3219999989 0 -1.08398498527e-10)
(-88.3220000008 0 1.33748916832e-10)
(-88.3220000009 0 -1.31057282101e-10)
(-88.3219999998 0 8.46487633058e-11)
(-88.3219999999 0 8.08541650432e-11)
(-88.3220000004 0 6.71930122888e-12)
(-88.322 0 -5.19220511733e-10)
(-88.322 0 4.95630983606e-10)
(-88.3220000002 0 7.02222669958e-10)
(-88.322 0 -4.90280029756e-10)
(-88.3220000003 0 -7.80837109382e-10)
(-88.322 0 9.06302601955e-10)
(-88.3219999997 0 4.67157626375e-10)
(-88.3219999999 0 -3.68091655385e-10)
(-88.3219999999 0 -4.94999785308e-10)
(-88.322 0 2.36082175913e-10)
(-88.3220000005 0 -3.12844306609e-10)
(-88.3220000011 0 -7.71931388683e-11)
(-88.3220000003 0 -3.99262497421e-10)
(-88.3219999998 0 6.50991973483e-11)
(-88.3220000001 0 -6.83672099607e-10)
(-88.3219999999 0 -6.13970914791e-10)
(-88.3219999993 0 5.93099229013e-10)
(-88.3219999984 0 2.93939108298e-11)
(-88.3220000001 0 -4.8193347979e-10)
(-88.3220000012 0 1.9843866289e-10)
(-88.3219999994 0 -4.86195364082e-10)
(-88.3219999999 0 4.59218671581e-10)
(-88.322 0 1.10892804561e-10)
(-88.3220000005 0 -3.75938842054e-10)
(-88.3220000012 0 -4.33990100468e-10)
(-88.3220000003 0 -4.60298221172e-10)
(-88.321999998 0 -1.73782670395e-10)
(-88.3219999977 0 -2.34880554055e-10)
(-88.3220000021 0 -1.76935104904e-10)
(-88.322000003 0 9.29471531907e-11)
(-88.3220000002 0 6.96768267211e-11)
(-88.3219999999 0 9.59113700881e-11)
(-88.322 0 7.01928903446e-10)
(-88.3220000001 0 2.11703635042e-10)
(-88.322 0 -9.94999365689e-11)
(-88.3219999999 0 1.87140819274e-10)
(-88.322 0 -2.31964928433e-10)
(-88.322 0 5.28380880615e-11)
(-88.322 0 1.96194776962e-11)
(-88.322 0 4.15372591881e-11)
(-88.322 0 4.76059939806e-11)
(-88.322 0 1.08732111034e-10)
(-88.3219999997 0 -4.49330484931e-11)
(-88.3219999997 0 1.82419206851e-10)
(-88.3220000006 0 -2.37989326979e-11)
(-88.3220000002 0 4.8403806682e-10)
(-88.3219999997 0 3.89239982066e-10)
(-88.322 0 -3.49460500764e-10)
(-88.322 0 -2.58879147312e-10)
(-88.322 0 -3.4068769988e-10)
(-88.322 0 5.79322818162e-10)
(-88.322 0 5.00551918505e-10)
(-88.322 0 -5.60538346749e-10)
(-88.3219999998 0 -4.99827573967e-10)
(-88.322 0 3.45872636558e-10)
(-88.322 0 5.75415913942e-10)
(-88.322 0 -2.44103030243e-10)
(-88.322 0 6.26363117327e-10)
(-88.3219999994 0 -1.97937624419e-10)
(-88.3219999999 0 7.3591657986e-11)
(-88.3220000008 0 -1.02289499072e-10)
(-88.3219999996 0 -3.22896503009e-10)
(-88.3219999998 0 1.29347657895e-10)
(-88.3220000017 0 -1.03633642109e-10)
(-88.3219999988 0 6.82038259369e-12)
(-88.321999998 0 -1.07170740369e-10)
(-88.3220000019 0 5.121408419e-11)
(-88.3220000024 0 1.039246468e-10)
(-88.3219999975 0 -8.76819184648e-11)
(-88.3219999976 0 4.04122071833e-10)
(-88.3220000025 0 -4.36447280661e-11)
(-88.3220000018 0 4.73219765015e-11)
(-88.3219999988 0 -1.04468345501e-10)
(-88.3219999998 0 2.07244831837e-12)
(-88.3220000006 0 -1.20192024255e-10)
(-88.3220000002 0 2.430189337e-10)
(-88.3219999997 0 4.4324840201e-10)
(-88.3220000006 0 3.61988890187e-10)
(-88.3220000013 0 3.85709320356e-10)
(-88.3219999975 0 3.06442168194e-10)
(-88.3219999989 0 5.7465500051e-10)
(-88.322000002 0 1.95053041114e-10)
(-88.3219999998 0 -3.95632116671e-10)
(-88.3220000002 0 1.0892457182e-10)
(-88.3219999991 0 -2.49070044404e-10)
(-88.3219999989 0 2.28764122319e-10)
(-88.3220000017 0 6.39002833376e-10)
(-88.322000001 0 -5.91725815371e-10)
(-88.3220000002 0 -2.237856137e-10)
(-88.3219999996 0 4.58516398153e-10)
(-88.3219999996 0 3.15972231813e-11)
(-88.3219999998 0 -5.41774795474e-10)
(-88.3219999994 0 -1.19700609623e-09)
(-88.3219999997 0 8.85541243787e-10)
(-88.3220000001 0 1.09898846379e-09)
(-88.322 0 8.59700041429e-10)
(-88.3220000005 0 -3.31511581892e-10)
(-88.3220000001 0 -1.66054464126e-10)
(-88.322 0 3.13425458975e-10)
(-88.3220000004 0 -4.63720103115e-11)
(-88.322 0 -7.60106112385e-11)
(-88.3219999996 0 -4.04484683392e-12)
(-88.322 0 -1.1440026619e-11)
(-88.322 0 5.30319752329e-11)
(-88.322 0 1.35232494736e-11)
(-88.322 0 -1.25791570699e-11)
(-88.3220000001 0 8.97125232182e-11)
(-88.3220000002 0 -3.23994197127e-10)
(-88.3219999995 0 -3.36751250487e-10)
(-88.3219999998 0 6.57829842129e-11)
(-88.3220000004 0 -3.12507955937e-11)
(-88.322 0 4.1707800543e-11)
(-88.3220000002 0 1.98224414878e-10)
(-88.3219999994 0 1.85428747187e-10)
(-88.3219999993 0 -3.5210255731e-11)
(-88.3220000017 0 -9.14521581778e-12)
(-88.3220000012 0 4.22911903001e-11)
(-88.3219999979 0 4.92930606039e-11)
(-88.3219999983 0 1.07706841839e-10)
(-88.3220000005 0 -1.27753108299e-10)
(-88.3220000001 0 1.60466845728e-10)
(-88.322 0 1.05837622067e-11)
(-88.3219999999 0 2.97708749743e-10)
(-88.3220000006 0 2.91269679233e-10)
(-88.3220000015 0 4.16380275662e-10)
(-88.3219999993 0 -4.27476023352e-11)
(-88.3219999994 0 1.48081329489e-10)
(-88.3220000005 0 4.42428776873e-10)
(-88.3220000001 0 -4.13741267787e-11)
(-88.322 0 -5.88992384581e-10)
(-88.3219999998 0 -8.16374246166e-10)
(-88.3220000002 0 2.71704865181e-10)
(-88.3219999997 0 9.84916934579e-10)
(-88.3219999999 0 -1.18063698637e-09)
(-88.3220000004 0 -2.96575227259e-10)
(-88.3219999999 0 1.22710600214e-10)
(-88.322 0 4.26440873993e-10)
(-88.322 0 -1.953838144e-10)
(-88.322 0 2.56227521023e-10)
(-88.322 0 9.00334645167e-11)
(-88.322 0 3.59578203752e-10)
(-88.3219999999 0 -4.82396308445e-11)
(-88.3220000002 0 6.75608502622e-10)
(-88.3219999996 0 5.2042848482e-10)
(-88.3219999996 0 -5.08319838134e-10)
(-88.3220000004 0 -1.6227984035e-10)
(-88.3220000002 0 3.51870797466e-10)
(-88.3220000009 0 3.12599285485e-11)
(-88.3219999992 0 3.88583272166e-10)
(-88.3219999982 0 -4.99042849418e-10)
(-88.3220000016 0 -1.01449992415e-10)
(-88.3220000021 0 -2.63071898125e-10)
(-88.3219999991 0 2.40894531391e-10)
(-88.3219999998 0 1.08828741236e-10)
(-88.3219999998 0 -2.96522928881e-10)
(-88.3220000001 0 8.63541480992e-10)
(-88.3219999992 0 7.65186367056e-10)
(-88.3219999983 0 4.4231378055e-10)
(-88.3220000002 0 1.74536315646e-10)
(-88.3220000005 0 -4.78761620544e-11)
(-88.3220000003 0 -1.45277276591e-10)
(-88.3219999988 0 -2.71528904425e-10)
(-88.3219999999 0 4.98987560796e-10)
(-88.3220000007 0 6.90320445684e-10)
(-88.3219999999 0 2.14299337285e-11)
(-88.3219999999 0 4.48773169652e-10)
(-88.3219999999 0 3.16714483763e-10)
(-88.322 0 -4.90103970858e-10)
(-88.3220000001 0 2.98529432224e-11)
(-88.3219999998 0 1.02388116278e-10)
(-88.3220000003 0 -7.07188086104e-11)
(-88.3220000005 0 2.47467337995e-10)
(-88.3219999998 0 2.1477499617e-10)
(-88.3219999997 0 -6.36310912872e-10)
(-88.3219999998 0 5.3567954217e-10)
(-88.3219999996 0 4.4853068006e-10)
(-88.3219999997 0 5.9821117808e-10)
(-88.3220000005 0 1.18982916952e-10)
(-88.3220000004 0 -8.16518410245e-10)
(-88.3219999999 0 -2.75050949084e-10)
(-88.3219999997 0 9.80338624335e-10)
(-88.3219999998 0 1.17280412708e-09)
(-88.3220000004 0 -7.14917717724e-10)
(-88.3219999999 0 -6.78524458995e-10)
(-88.3219999998 0 -5.1378993451e-10)
(-88.3219999998 0 -1.49565164367e-10)
(-88.3219999989 0 1.2983467113e-10)
(-88.3219999997 0 -5.49661231615e-10)
(-88.3220000015 0 6.05874808738e-10)
(-88.3220000001 0 8.75841371344e-10)
(-88.3219999989 0 -1.78693267734e-10)
(-88.3220000022 0 -3.78550292781e-10)
(-88.3220000008 0 1.1056393114e-10)
(-88.3219999994 0 2.11334128299e-10)
(-88.3220000002 0 1.28929711896e-10)
(-88.3219999988 0 -1.54647741868e-10)
(-88.3220000004 0 -9.49423186523e-12)
(-88.322 0 -5.63726677748e-11)
(-88.3219999999 0 5.75622741717e-12)
(-88.3220000004 0 8.26120668534e-11)
(-88.3219999995 0 5.86133286909e-11)
(-88.3220000001 0 -3.5406096785e-11)
(-88.322 0 2.97779502596e-11)
(-88.322 0 1.63218478254e-11)
(-88.322 0 1.24878994099e-11)
(-88.322 0 4.74157448979e-12)
(-88.3220000002 0 -1.06897562824e-10)
(-88.3219999998 0 3.40185958049e-10)
(-88.3220000002 0 -2.63248780165e-10)
(-88.3220000003 0 -8.77055213603e-11)
(-88.3219999994 0 -3.19337075629e-11)
(-88.3220000002 0 1.71498956311e-10)
(-88.3220000002 0 3.26984434438e-10)
(-88.3219999998 0 -4.39493448324e-10)
(-88.3220000013 0 -5.34167916147e-10)
(-88.3220000001 0 3.07823994781e-10)
(-88.3219999995 0 4.2697130285e-10)
(-88.3220000007 0 6.1289292652e-11)
(-88.321999998 0 4.47752927857e-10)
(-88.3219999977 0 -1.01817880156e-10)
(-88.3220000002 0 5.64527652314e-10)
(-88.3220000009 0 -2.41606338429e-10)
(-88.3220000011 0 -8.45703167742e-11)
(-88.322000001 0 -2.8320519705e-10)
(-88.3220000005 0 5.52908574498e-10)
(-88.3219999988 0 2.16118831612e-11)
(-88.3219999981 0 -3.75173860519e-10)
(-88.3220000014 0 6.73348686888e-11)
(-88.3220000005 0 4.11339108994e-11)
(-88.3219999989 0 5.87199134856e-11)
(-88.322000002 0 -1.14782313158e-10)
(-88.3220000006 0 5.93575100553e-11)
(-88.3219999989 0 -2.05395205844e-10)
(-88.3220000003 0 -1.73577266559e-10)
(-88.3219999998 0 4.04025645072e-10)
(-88.3219999996 0 -3.86386295983e-10)
(-88.3220000014 0 -3.04905100198e-10)
(-88.3219999992 0 -5.97954585858e-11)
(-88.3219999982 0 -1.24410519741e-10)
(-88.3219999998 0 2.9945654462e-11)
(-88.3220000009 0 -3.21267106553e-10)
(-88.3220000023 0 -1.64111885727e-10)
(-88.322 0 5.64811087816e-11)
(-88.3219999981 0 -6.66269687571e-12)
(-88.3219999984 0 -4.25513532852e-12)
(-88.3220000013 0 -4.7524866306e-11)
(-88.322000002 0 4.20228884738e-12)
(-88.3220000001 0 -7.40253398683e-11)
(-88.321999999 0 -7.74255050611e-11)
(-88.3219999988 0 5.1936640359e-11)
(-88.3220000008 0 -3.93167087448e-10)
(-88.3219999996 0 -3.90282135574e-10)
(-88.3219999987 0 -6.59687997269e-10)
(-88.3220000009 0 3.89875212805e-10)
(-88.322000002 0 -5.16062477258e-10)
(-88.322 0 -3.95209400902e-10)
(-88.3219999989 0 8.93479053532e-10)
(-88.3219999999 0 2.25115520541e-10)
(-88.3220000006 0 -1.18299722415e-10)
(-88.3220000005 0 -5.38407210012e-10)
(-88.3219999995 0 -1.53573028007e-10)
(-88.3219999999 0 6.71744318573e-10)
(-88.3220000001 0 -2.42220791205e-10)
(-88.3219999999 0 -6.58549820382e-11)
(-88.3220000001 0 7.41780654638e-11)
(-88.322 0 1.09030363111e-10)
(-88.3219999999 0 -2.54394246858e-10)
(-88.322 0 8.31975662204e-11)
(-88.322 0 5.28803646631e-11)
(-88.3220000001 0 1.70095571342e-11)
(-88.3219999995 0 -7.65426077176e-12)
(-88.322 0 -5.98648097959e-11)
(-88.3220000005 0 3.40510511467e-11)
(-88.3219999999 0 -5.52681076389e-11)
(-88.3219999997 0 1.54374244115e-10)
(-88.3220000002 0 -6.22885384638e-11)
(-88.3220000004 0 6.1000035963e-11)
(-88.3219999997 0 -6.28033554542e-11)
(-88.3220000001 0 5.30230683883e-11)
(-88.3220000002 0 3.15152250719e-10)
(-88.3219999997 0 -1.61600037655e-11)
(-88.3219999998 0 1.1380883178e-10)
(-88.3220000002 0 5.01643198167e-10)
(-88.3219999999 0 -5.62598290406e-10)
(-88.3219999996 0 -5.71889105063e-10)
(-88.3219999997 0 1.31559159523e-11)
(-88.3220000003 0 3.0426272295e-10)
(-88.3220000007 0 -1.02701420173e-10)
(-88.322 0 1.12770016028e-10)
(-88.3220000006 0 2.6253220458e-10)
(-88.3219999998 0 -4.6132171056e-10)
(-88.3219999998 0 -7.23447950918e-10)
(-88.3219999999 0 1.79550184601e-10)
(-88.3220000002 0 -4.49005196914e-10)
(-88.3219999999 0 -3.65935043605e-10)
(-88.3220000001 0 4.88781984745e-10)
(-88.3220000005 0 -5.77333956221e-11)
(-88.3219999985 0 -1.24447011102e-10)
(-88.3220000008 0 1.07472285491e-10)
(-88.322000002 0 -2.24777825346e-10)
(-88.3219999992 0 -9.79662196734e-11)
(-88.3219999993 0 4.29887389156e-10)
(-88.3219999995 0 -5.34128742799e-10)
(-88.322 0 -3.72336126174e-10)
(-88.322 0 -5.82498646572e-10)
(-88.3219999998 0 3.8588646494e-11)
(-88.3220000002 0 5.18388541149e-10)
(-88.322 0 1.85083061632e-11)
(-88.3219999999 0 -4.05729849594e-10)
(-88.3219999998 0 -7.99947353504e-10)
(-88.3220000005 0 2.51240530774e-10)
(-88.322 0 1.83390508988e-10)
(-88.3219999995 0 2.94364802926e-10)
(-88.3220000004 0 -2.7330760076e-10)
(-88.3219999998 0 -3.30060915088e-10)
(-88.3220000002 0 9.66163376864e-11)
(-88.3219999999 0 -5.63965194742e-10)
(-88.322 0 -5.47269065045e-10)
(-88.3220000004 0 -8.6980624954e-11)
(-88.3219999994 0 4.35127559415e-10)
(-88.3219999996 0 -9.63879788114e-11)
(-88.3220000014 0 -1.16484844577e-10)
(-88.3220000018 0 -1.27750848511e-10)
(-88.3219999989 0 -5.94141676602e-11)
(-88.3219999979 0 2.66075862669e-10)
(-88.3220000002 0 -7.27497727012e-11)
(-88.3220000014 0 1.25636063185e-10)
(-88.3219999998 0 -4.23949876244e-11)
(-88.3219999992 0 -3.17907852549e-11)
(-88.3220000007 0 5.67119485653e-11)
(-88.322 0 -2.20032366897e-11)
(-88.3219999994 0 -1.50469608712e-11)
(-88.3220000002 0 -6.2764280435e-11)
(-88.3220000001 0 -2.14286608114e-11)
(-88.3220000003 0 5.6783814469e-11)
(-88.3219999997 0 -2.24290712935e-10)
(-88.3220000002 0 8.11818612336e-11)
(-88.322 0 1.54145812223e-10)
(-88.3219999994 0 -2.01668435116e-10)
(-88.3220000003 0 -2.6696077939e-10)
(-88.3220000001 0 1.67528206279e-10)
(-88.3219999998 0 6.80601869318e-10)
(-88.3220000006 0 6.48075059326e-10)
(-88.3220000003 0 -2.63027320148e-10)
(-88.3219999999 0 -4.26389986758e-10)
(-88.3219999998 0 -3.07334960761e-10)
(-88.3219999995 0 -5.00748268613e-10)
(-88.3219999998 0 1.91544513202e-10)
(-88.3219999991 0 -4.83313152065e-10)
(-88.3219999992 0 3.59224916543e-10)
(-88.3220000013 0 -2.2932906174e-10)
(-88.3220000005 0 1.74877624542e-10)
(-88.3220000003 0 -3.51310782952e-10)
(-88.322 0 5.3451558673e-11)
(-88.322 0 -6.31833025984e-11)
(-88.322 0 1.17386056759e-11)
(-88.322 0 -8.62183442285e-11)
(-88.322 0 1.01198724795e-10)
(-88.322 0 5.52170833074e-11)
(-88.322 0 -1.07779930977e-10)
(-88.3220000001 0 2.04264802046e-10)
(-88.322 0 1.68747027762e-10)
(-88.322 0 -5.02016094679e-10)
(-88.322 0 5.94656789017e-10)
(-88.322 0 5.44844159437e-10)
(-88.3220000001 0 5.04372218441e-11)
(-88.3219999999 0 1.24612101815e-10)
(-88.322 0 -6.10666157037e-11)
(-88.322 0 1.07211082944e-10)
(-88.322 0 -7.28317248362e-12)
(-88.322 0 -5.86968387567e-12)
(-88.322 0 2.77151961728e-11)
(-88.322 0 -3.3682540497e-11)
(-88.322 0 1.46401852663e-11)
(-88.322 0 -3.07339070078e-11)
(-88.322 0 2.33720502992e-10)
(-88.322 0 -9.91532398691e-11)
(-88.322 0 -4.88024895429e-11)
(-88.322 0 1.24491634809e-10)
(-88.322 0 -2.16772990408e-11)
(-88.322 0 6.38315351023e-11)
(-88.322 0 -2.62693823659e-10)
(-88.322 0 6.19447261523e-11)
(-88.322 0 -1.32928568199e-10)
(-88.322 0 4.51728644651e-12)
(-88.322 0 1.77738617777e-10)
(-88.3220000004 0 -2.34804120307e-10)
(-88.3219999998 0 1.96163271131e-10)
(-88.3219999996 0 -2.41444945084e-10)
(-88.3220000001 0 -7.71203240448e-10)
(-88.322 0 2.14555007704e-10)
(-88.3220000001 0 3.56018948942e-10)
(-88.322 0 -6.15474693857e-11)
(-88.322 0 -1.04508599436e-10)
(-88.322 0 2.59854937874e-10)
(-88.3220000001 0 -1.21771314277e-10)
(-88.322 0 -4.44967947122e-11)
(-88.3219999999 0 -4.17039469764e-11)
(-88.322 0 -8.10412721052e-11)
(-88.3219999999 0 1.86224589153e-10)
(-88.3219999998 0 -3.78646760772e-12)
(-88.3220000004 0 2.50243194526e-10)
(-88.3220000005 0 -6.93435954963e-11)
(-88.3219999994 0 -9.36321972605e-11)
(-88.3219999985 0 -2.14429610778e-10)
(-88.3219999988 0 8.09363877013e-11)
(-88.322000002 0 1.47443496647e-10)
(-88.3220000024 0 -2.35840390247e-10)
(-88.3219999997 0 -1.17794983e-10)
(-88.3219999999 0 -8.75708381988e-12)
(-88.3219999992 0 -1.46749717176e-10)
(-88.3219999998 0 8.43280640197e-11)
(-88.3219999992 0 6.75785219533e-11)
(-88.3219999992 0 -1.08559869759e-09)
(-88.3220000006 0 -1.00866824346e-09)
(-88.3220000001 0 -2.4885476843e-10)
(-88.3219999995 0 1.99241360985e-10)
(-88.3220000002 0 1.28523426338e-10)
(-88.3219999998 0 -2.05358204208e-10)
(-88.3219999999 0 -7.10629729314e-11)
(-88.3219999997 0 1.04137411313e-10)
(-88.3219999999 0 7.23258710533e-11)
(-88.3220000003 0 -1.71204078575e-10)
(-88.3219999999 0 -2.04250576951e-10)
(-88.322 0 -2.81149998088e-11)
(-88.322 0 -1.06584685843e-10)
(-88.322 0 3.25387508379e-11)
(-88.3219999999 0 -4.30957324783e-11)
(-88.3220000003 0 -2.76526248793e-11)
(-88.3220000001 0 -2.07535053752e-11)
(-88.3219999998 0 -3.82659576632e-11)
(-88.322 0 -5.0201959219e-11)
(-88.322 0 -5.27307823109e-11)
(-88.322 0 -2.74506243664e-12)
(-88.322 0 6.08031176153e-11)
(-88.322 0 -1.74565891492e-10)
(-88.3219999998 0 -7.78141306814e-11)
(-88.3219999998 0 5.91812081103e-10)
(-88.322 0 4.06194801786e-10)
(-88.3220000001 0 -5.02529466369e-10)
(-88.3220000001 0 -3.61888803883e-10)
(-88.322 0 -9.65959512518e-11)
(-88.3219999997 0 8.51066929052e-11)
(-88.3220000003 0 -2.08549793341e-10)
(-88.3220000004 0 1.61958289222e-10)
(-88.322 0 -1.60670888573e-10)
(-88.3220000002 0 -4.17569012903e-10)
(-88.3219999995 0 -3.48119466248e-10)
(-88.3219999989 0 3.47460248623e-10)
(-88.3220000018 0 -4.66496583203e-10)
(-88.3220000017 0 -4.97284990416e-10)
(-88.321999999 0 -4.35166081713e-10)
(-88.3219999998 0 4.83382991916e-10)
(-88.3219999993 0 3.41611589429e-10)
(-88.321999999 0 -3.95813552157e-10)
(-88.3220000003 0 -2.4074408807e-10)
(-88.322 0 5.79843526253e-10)
(-88.322 0 1.44421544427e-10)
(-88.3220000001 0 -4.13709649522e-10)
(-88.322 0 -6.28838450141e-10)
(-88.322 0 2.41369950616e-10)
(-88.3220000002 0 -2.45999511877e-10)
(-88.3219999998 0 -1.18518106938e-10)
(-88.3219999995 0 -5.33574857e-10)
(-88.322 0 4.21225127884e-10)
(-88.3220000002 0 -1.62022593557e-10)
(-88.322 0 7.79927088786e-11)
(-88.3220000007 0 3.81777422262e-10)
(-88.3219999998 0 -4.69075008955e-10)
(-88.3219999991 0 -1.08397460273e-09)
(-88.3220000012 0 -1.29587976555e-09)
(-88.3220000008 0 -4.93429039768e-10)
(-88.3219999994 0 1.12576169017e-09)
(-88.3219999998 0 6.40534534756e-10)
(-88.3219999992 0 -8.03293257121e-11)
(-88.3219999994 0 -8.10216336411e-10)
(-88.3220000015 0 8.48011427542e-10)
(-88.3220000013 0 -5.40962175429e-11)
(-88.3219999995 0 -2.02650675326e-10)
(-88.3219999993 0 -5.5052360026e-11)
(-88.322 0 1.11916744045e-10)
(-88.3220000008 0 4.33578241287e-11)
(-88.3220000004 0 3.39698147736e-10)
(-88.3219999994 0 -2.52145597371e-10)
(-88.3219999997 0 2.36779365576e-10)
(-88.3220000006 0 -2.87764047471e-10)
(-88.3220000005 0 2.99143821861e-10)
(-88.3219999997 0 3.30197912327e-10)
(-88.322 0 -2.70094225905e-10)
(-88.3219999998 0 -4.48391458037e-10)
(-88.322 0 -1.22298268393e-10)
(-88.3220000001 0 -5.02205238521e-10)
(-88.322 0 -4.63732081314e-10)
(-88.3220000001 0 -1.0728725153e-10)
(-88.322 0 7.02491051859e-11)
(-88.322 0 5.84037339588e-11)
(-88.3219999999 0 1.3274595709e-10)
(-88.3219999998 0 -4.09095125585e-10)
(-88.3220000004 0 -8.07704392355e-10)
(-88.3220000002 0 3.6463645619e-10)
(-88.3219999984 0 3.49669808037e-10)
(-88.321999999 0 8.27542050678e-10)
(-88.3220000023 0 -5.36809568554e-10)
(-88.3220000015 0 -5.42479722288e-10)
(-88.3219999992 0 3.44742691003e-10)
(-88.3219999992 0 3.2614808448e-10)
(-88.3220000002 0 3.22901541985e-10)
(-88.3219999999 0 1.01178994202e-10)
(-88.322 0 3.88930675708e-10)
(-88.3220000011 0 1.02894998049e-10)
(-88.3220000003 0 6.50995771158e-11)
(-88.3219999985 0 9.89976188762e-11)
(-88.3220000002 0 -1.58951769053e-10)
(-88.3220000016 0 -4.1238477968e-10)
(-88.3220000004 0 5.94560509124e-10)
(-88.3219999979 0 9.12144778476e-10)
(-88.321999998 0 5.973377179e-10)
(-88.3220000017 0 8.05770104862e-10)
(-88.3220000012 0 -6.14658781334e-10)
(-88.3219999982 0 -7.05175609516e-11)
(-88.3219999992 0 6.01151511449e-11)
(-88.322000002 0 -8.74047389747e-11)
(-88.3220000015 0 6.85275133191e-11)
(-88.3219999987 0 -1.29418912181e-10)
(-88.3219999993 0 6.41180062028e-11)
(-88.3220000006 0 -1.32608274839e-10)
(-88.3220000006 0 -3.35446115469e-10)
(-88.3219999988 0 2.71550147312e-10)
(-88.321999999 0 3.85960948566e-10)
(-88.3220000011 0 5.29047567971e-10)
(-88.3219999994 0 -3.66846242184e-10)
(-88.3220000005 0 -3.69418093037e-10)
(-88.3220000013 0 8.60262467347e-10)
(-88.3220000004 0 1.50360329978e-10)
(-88.3220000009 0 1.27211845907e-10)
(-88.3219999977 0 3.71386271111e-10)
(-88.3219999974 0 5.90690137846e-10)
(-88.3220000023 0 7.43920597865e-10)
(-88.3220000019 0 -2.78629317506e-10)
(-88.3219999979 0 -5.03343658743e-10)
(-88.3219999977 0 -2.02420694065e-10)
(-88.3220000012 0 4.77885991333e-10)
(-88.3220000006 0 4.77865531221e-10)
(-88.3219999992 0 3.22002667931e-10)
(-88.322 0 -2.46079434539e-10)
(-88.3219999997 0 -2.42813458447e-10)
(-88.3220000004 0 1.6966691291e-10)
(-88.3220000001 0 -2.65254192759e-11)
(-88.3219999998 0 -9.48783735717e-11)
(-88.3219999998 0 -1.52418682112e-10)
(-88.3219999991 0 1.80668771291e-10)
(-88.322000001 0 1.45559209255e-10)
(-88.3220000016 0 5.27792921417e-11)
(-88.3219999997 0 -4.80202679221e-11)
(-88.322 0 -4.32168951198e-10)
(-88.3220000005 0 -1.72594446629e-11)
(-88.3219999995 0 -1.11152038923e-10)
(-88.321999999 0 -1.39161027916e-10)
(-88.3219999994 0 9.90815317628e-11)
(-88.3219999999 0 -1.50808171652e-10)
(-88.3220000009 0 -1.27646393936e-11)
(-88.3220000019 0 -8.18149049209e-12)
(-88.3219999986 0 -7.32287736517e-11)
(-88.3219999977 0 2.08487801763e-10)
(-88.3219999989 0 -8.74992629543e-12)
(-88.3220000016 0 -3.99381440747e-10)
(-88.3220000028 0 -2.5469880189e-10)
(-88.3219999985 0 3.48276764203e-10)
(-88.3219999983 0 5.1888441437e-10)
(-88.322 0 9.10741622811e-11)
(-88.3220000001 0 -4.60343146454e-11)
(-88.3220000001 0 2.1225514165e-10)
(-88.3220000004 0 -1.11435215287e-10)
(-88.3220000006 0 1.74578524405e-10)
(-88.3220000002 0 4.26529024637e-10)
(-88.322 0 3.43152182504e-10)
(-88.3219999998 0 -3.3276412322e-10)
(-88.3220000004 0 5.75366374335e-10)
(-88.3219999993 0 2.55413559088e-10)
(-88.3219999988 0 6.97914331339e-10)
(-88.3220000001 0 -5.33787624237e-10)
(-88.3220000017 0 -3.47340873778e-10)
(-88.3220000007 0 5.46722668267e-10)
(-88.3219999991 0 1.83414176516e-10)
(-88.322 0 -5.99924346845e-10)
(-88.3220000001 0 -1.39754974568e-10)
(-88.3220000002 0 3.93170100276e-10)
(-88.3219999999 0 6.59115393622e-10)
(-88.3219999999 0 -4.43090849999e-10)
(-88.322000001 0 2.49162163499e-10)
(-88.3219999991 0 8.94183305594e-11)
(-88.3219999981 0 5.52906953781e-10)
(-88.3219999996 0 -4.54238739587e-10)
(-88.3220000018 0 3.10035927834e-11)
(-88.3220000018 0 1.88433288915e-10)
(-88.3219999982 0 -6.77371677806e-10)
(-88.3219999988 0 1.21136884945e-10)
(-88.3220000005 0 8.69209552967e-10)
(-88.3220000007 0 8.24337116428e-10)
(-88.322 0 5.35441921331e-10)
(-88.3219999989 0 -4.53616875702e-10)
(-88.3220000014 0 -6.4736333415e-10)
(-88.3220000015 0 5.46733438946e-10)
(-88.3219999994 0 5.63661367819e-10)
(-88.3219999995 0 -4.63681108453e-10)
(-88.322 0 -5.58567270738e-10)
(-88.3219999999 0 1.49438301817e-10)
(-88.322 0 -1.80835802181e-10)
(-88.3220000001 0 -4.80131009159e-11)
(-88.322 0 1.55143228357e-10)
(-88.322 0 -2.7918320274e-10)
(-88.322 0 1.7843535983e-10)
(-88.322 0 -1.60829004213e-10)
(-88.322 0 1.48133117778e-10)
(-88.322 0 -2.67890238798e-10)
(-88.3219999999 0 -1.74489302961e-10)
(-88.3220000003 0 -2.49843217568e-10)
(-88.3220000007 0 1.57350571927e-11)
(-88.3219999999 0 4.15944953139e-10)
(-88.3219999994 0 1.92681738134e-10)
(-88.3220000002 0 -1.60697188596e-10)
(-88.3219999997 0 -3.30881060004e-10)
(-88.322 0 1.85620950999e-10)
(-88.3220000002 0 2.29416926804e-10)
(-88.3219999996 0 -3.07586660089e-10)
(-88.3219999999 0 4.70207663036e-10)
(-88.322 0 8.06714520946e-10)
(-88.3220000001 0 -3.39512961341e-10)
(-88.3219999996 0 -3.57792322323e-10)
(-88.3219999996 0 -8.60822457277e-10)
(-88.3220000006 0 4.36442091323e-10)
(-88.3219999999 0 4.9171862865e-10)
(-88.3219999998 0 -3.73045785306e-10)
(-88.3220000002 0 -3.35045615533e-10)
(-88.3219999999 0 -3.88122406051e-10)
(-88.322 0 -2.55988377637e-10)
(-88.322 0 -2.52530621035e-10)
(-88.322 0 -1.29780948342e-10)
(-88.322 0 1.40103441759e-10)
(-88.322 0 1.4739916614e-10)
(-88.3219999997 0 -1.65288368788e-10)
(-88.3220000004 0 4.26766308516e-10)
(-88.3220000003 0 -3.26636774675e-10)
(-88.3219999995 0 -8.32422453214e-10)
(-88.322 0 -6.43944096934e-10)
(-88.3219999997 0 -1.83354823271e-10)
(-88.3220000002 0 -1.11006961461e-11)
(-88.3220000005 0 -5.10854805912e-10)
(-88.3219999998 0 2.42216734393e-10)
(-88.322 0 4.10283679435e-10)
(-88.322 0 -3.90841472672e-10)
(-88.3220000004 0 9.437649455e-11)
(-88.3220000002 0 -5.60730013748e-10)
(-88.3219999996 0 -4.88137665559e-10)
(-88.322 0 1.83661522819e-10)
(-88.3219999998 0 -9.01784232843e-10)
(-88.322 0 -5.61875913299e-10)