/*--------------------------------*- C++ -*----------------------------------*\
  =========                 |
  \\      /  F ield         | OpenFOAM: The Open Source CFD Toolbox
   \\    /   O peration     | Website:  https://openfoam.org
    \\  /    A nd           | Version:  6
     \\/     M anipulation  |
\*---------------------------------------------------------------------------*/
FoamFile
{
    version     2.0;
    format      ascii;
    class       volVectorField;
    location    "2e-06";
    object      U;
}
// * * * * * * * * * * * * * * * * * * * * * * * * * * * * * * * * * * * * * //

dimensions      [0 1 -1 0 0 0 0];

internalField   nonuniform List<vector> 
8192
(
(-88.322 0 -6.70312178172e-13)
(-88.322 0 -3.18832441317e-14)
(-88.322 0 -5.70351953795e-13)
(-88.322 0 -1.05254187897e-12)
(-88.322 0 4.09908780298e-13)
(-88.322 0 -3.64777148258e-14)
(-88.322 0 -8.00638364794e-14)
(-88.322 0 1.17665233804e-13)
(-88.322 0 -6.33577960374e-13)
(-88.322 0 -1.14947149156e-12)
(-88.322 0 -5.18415935874e-13)
(-88.322 0 4.8421767244e-13)
(-88.322 0 -8.69392264475e-13)
(-88.322 0 -9.50395263156e-13)
(-88.322 0 -1.23439994549e-12)
(-88.322 0 3.7437897851e-13)
(-88.322 0 -3.55100512482e-13)
(-88.322 0 5.04827959108e-13)
(-88.322 0 -1.09304591888e-12)
(-88.322 0 -5.96152144321e-13)
(-88.322 0 3.50378260776e-13)
(-88.322 0 8.03435056405e-13)
(-88.322 0 5.63547191534e-14)
(-88.322 0 -5.104181431e-13)
(-88.322 0 4.40369590305e-13)
(-88.322 0 3.5090500459e-13)
(-88.322 0 7.78670663646e-13)
(-88.322 0 6.57586393897e-13)
(-88.322 0 3.44740841095e-13)
(-88.322 0 -6.12794633e-13)
(-88.322 0 1.12875986458e-12)
(-88.322 0 -4.99427094258e-14)
(-88.322 0 -4.7143797173e-13)
(-88.322 0 4.21468257039e-13)
(-88.322 0 -1.08718464719e-12)
(-88.322 0 4.74699869025e-15)
(-88.322 0 -8.19956068438e-14)
(-88.322 0 -6.88177619575e-13)
(-88.322 0 4.72198353431e-13)
(-88.322 0 -3.13404100727e-14)
(-88.322 0 5.9264437679e-13)
(-88.322 0 -1.41746590952e-14)
(-88.322 0 -5.46386803972e-13)
(-88.322 0 -1.17299768821e-13)
(-88.322 0 -5.33049214003e-13)
(-88.322 0 7.97455130921e-15)
(-88.322 0 -1.80589948191e-14)
(-88.322 0 -3.48345338286e-14)
(-88.322 0 3.6908933395e-13)
(-88.322 0 -6.19467944544e-13)
(-88.322 0 -1.16920001398e-13)
(-88.322 0 -5.91469977086e-13)
(-88.322 0 -6.09531418376e-14)
(-88.322 0 1.13202816033e-12)
(-88.322 0 -9.82361216794e-14)
(-88.322 0 -7.20415037289e-13)
(-88.322 0 8.58250851822e-13)
(-88.322 0 -5.68823192318e-13)
(-88.322 0 -3.96162535741e-14)
(-88.322 0 8.61087816093e-14)
(-88.322 0 6.45651666294e-13)
(-88.322 0 1.1463520541e-12)
(-88.322 0 4.48950960273e-13)
(-88.322 0 -3.65296552662e-14)
(-88.322 0 -8.68541567204e-17)
(-88.322 0 2.23052199156e-15)
(-88.322 0 3.031054029e-13)
(-88.322 0 -8.32606200332e-14)
(-88.322 0 -3.18777866217e-14)
(-88.322 0 -1.35898586659e-13)
(-88.322 0 8.4047536524e-15)
(-88.322 0 6.04089904485e-16)
(-88.322 0 -1.96517408959e-15)
(-88.322 0 -4.11336671934e-13)
(-88.322 0 -5.91707002393e-15)
(-88.322 0 -8.40626199526e-13)
(-88.322 0 -2.68810597996e-15)
(-88.322 0 -2.71464077016e-16)
(-88.322 0 -7.35822905463e-15)
(-88.322 0 4.17438638634e-13)
(-88.322 0 2.41410133792e-15)
(-88.322 0 5.70483874986e-14)
(-88.322 0 -7.41353056844e-13)
(-88.322 0 -4.20708157624e-15)
(-88.322 0 3.67549186979e-14)
(-88.322 0 2.89398584149e-15)
(-88.322 0 2.14978848096e-15)
(-88.322 0 1.82262016353e-16)
(-88.322 0 -1.0299798738e-13)
(-88.322 0 -7.07856271641e-13)
(-88.322 0 1.03816990266e-13)
(-88.322 0 -1.32168943116e-13)
(-88.322 0 3.65695515465e-14)
(-88.322 0 -1.19670021889e-15)
(-88.322 0 -9.85319563616e-14)
(-88.322 0 -7.29066884413e-14)
(-88.322 0 -1.31328392475e-15)
(-88.322 0 -9.91937265015e-14)
(-88.322 0 5.78129093792e-15)
(-88.322 0 -5.45550205321e-13)
(-88.322 0 -4.48968932418e-13)
(-88.322 0 -2.15082352597e-15)
(-88.322 0 -9.85703471219e-14)
(-88.322 0 1.07174205796e-15)
(-88.322 0 5.38562522379e-13)
(-88.322 0 -1.84329848089e-13)
(-88.322 0 -2.19024933126e-15)
(-88.322 0 7.4218372751e-14)
(-88.322 0 -1.6099061821e-13)
(-88.322 0 -5.47752216527e-13)
(-88.322 0 -4.4779443862e-13)
(-88.322 0 -1.02781851163e-14)
(-88.322 0 -1.06573136341e-12)
(-88.322 0 -9.18837681822e-16)
(-88.322 0 5.40582459759e-13)
(-88.322 0 -1.83998257306e-13)
(-88.322 0 -3.90230786897e-15)
(-88.322 0 -9.85765573919e-14)
(-88.322 0 -1.09803220115e-14)
(-88.322 0 2.01194833806e-12)
(-88.322 0 -5.535140298e-13)
(-88.322 0 -1.64310101645e-13)
(-88.322 0 -5.43746686442e-13)
(-88.322 0 -3.14879510338e-15)
(-88.322 0 -6.62729908921e-13)
(-88.322 0 -2.0265343805e-12)
(-88.322 0 -5.78297617939e-13)
(-88.322 0 -1.66170919908e-13)
(-88.322 0 2.99719691101e-13)
(-88.322 0 2.94264613015e-13)
(-88.322 0 -3.09812776835e-13)
(-88.322 0 1.15941102877e-12)
(-88.322 0 1.36457510963e-13)
(-88.322 0 5.52027516979e-13)
(-88.322 0 1.32753555356e-13)
(-88.322 0 1.58658379523e-13)
(-88.322 0 4.76608115639e-14)
(-88.322 0 1.0757860729e-12)
(-88.322 0 4.15382474679e-13)
(-88.322 0 -5.118015278e-15)
(-88.322 0 8.46046636137e-13)
(-88.322 0 6.60292848402e-14)
(-88.322 0 9.81510786177e-13)
(-88.322 0 -2.97890469772e-13)
(-88.322 0 1.82860366463e-13)
(-88.322 0 2.23041190041e-13)
(-88.322 0 1.08385518968e-12)
(-88.322 0 1.50304625361e-13)
(-88.322 0 -3.36627687849e-13)
(-88.322 0 1.29907557965e-13)
(-88.322 0 6.79164635838e-13)
(-88.322 0 4.87715748186e-13)
(-88.322 0 3.89850266715e-13)
(-88.322 0 -3.31847379529e-13)
(-88.322 0 -4.26765993769e-14)
(-88.322 0 2.15159322307e-13)
(-88.322 0 -3.32178499836e-13)
(-88.322 0 -1.02680416752e-13)
(-88.322 0 -2.99796740391e-13)
(-88.322 0 2.31320326867e-14)
(-88.322 0 4.45656506109e-13)
(-88.322 0 4.8486288186e-13)
(-88.322 0 1.76712603726e-12)
(-88.322 0 -1.14323449854e-13)
(-88.322 0 -4.63629968572e-13)
(-88.322 0 4.90010348873e-13)
(-88.322 0 4.80680453174e-13)
(-88.322 0 -7.66299993905e-13)
(-88.322 0 -8.44614227941e-13)
(-88.322 0 -5.85010261194e-14)
(-88.322 0 -2.58682023931e-13)
(-88.322 0 -1.43123859478e-13)
(-88.322 0 -6.54167263857e-13)
(-88.322 0 -1.16627177756e-13)
(-88.322 0 -4.05057900727e-13)
(-88.322 0 -7.64611647307e-13)
(-88.322 0 2.50756307927e-13)
(-88.322 0 1.01170286086e-13)
(-88.322 0 -1.36174567296e-13)
(-88.322 0 5.17403567762e-13)
(-88.322 0 -7.3406652818e-13)
(-88.322 0 -3.0432656782e-13)
(-88.322 0 -4.0940734804e-13)
(-88.322 0 -7.80775098337e-13)
(-88.322 0 -1.2872244084e-12)
(-88.322 0 -6.20341993006e-13)
(-88.322 0 -6.72749144595e-14)
(-88.322 0 -1.11940682151e-13)
(-88.322 0 -5.17915820945e-14)
(-88.322 0 6.73841963933e-13)
(-88.322 0 -4.88316356576e-14)
(-88.322 0 3.91185554353e-13)
(-88.322 0 6.41932424201e-13)
(-88.322 0 -1.60753969284e-13)
(-88.322 0 1.97217569859e-13)
(-88.322 0 7.05368023442e-13)
(-88.322 0 -7.39505407411e-13)
(-88.322 0 -2.07056049037e-15)
(-88.322 0 2.22365305651e-15)
(-88.322 0 5.07248835286e-13)
(-88.322 0 1.77412360017e-14)
(-88.322 0 9.32696934475e-13)
(-88.322 0 -6.15444348219e-14)
(-88.322 0 4.46228133238e-13)
(-88.322 0 4.52270537803e-13)
(-88.322 0 9.77410690617e-13)
(-88.322 0 1.70236675264e-15)
(-88.322 0 -8.36113497388e-13)
(-88.322 0 1.42740704635e-13)
(-88.322 0 -6.65706886553e-13)
(-88.322 0 7.38287159437e-13)
(-88.322 0 -7.14779499507e-14)
(-88.322 0 -6.20083231754e-14)
(-88.322 0 -1.15924702119e-12)
(-88.322 0 -5.02684663182e-14)
(-88.322 0 4.08396767732e-14)
(-88.322 0 5.32259945137e-13)
(-88.322 0 1.21256632971e-12)
(-88.322 0 3.23339121376e-13)
(-88.322 0 -4.82348851631e-14)
(-88.322 0 3.07793215835e-14)
(-88.322 0 1.50272162586e-13)
(-88.322 0 5.21700792348e-13)
(-88.322 0 -3.77536618543e-13)
(-88.322 0 -3.79108757815e-15)
(-88.322 0 -2.92657752688e-13)
(-88.322 0 4.63401505911e-13)
(-88.322 0 6.15369919074e-13)
(-88.322 0 5.70789683738e-15)
(-88.322 0 6.19123745032e-13)
(-88.322 0 -4.3575253681e-13)
(-88.322 0 6.56885668427e-14)
(-88.322 0 -3.97085513603e-13)
(-88.322 0 -3.06294564759e-13)
(-88.322 0 7.12261517288e-14)
(-88.322 0 7.5563272596e-14)
(-88.322 0 6.99849539841e-13)
(-88.322 0 4.727504088e-13)
(-88.322 0 4.45238724306e-13)
(-88.322 0 7.9867554308e-14)
(-88.322 0 1.17090557996e-12)
(-88.322 0 1.88274404613e-13)
(-88.322 0 -3.93153377619e-13)
(-88.322 0 1.86732375741e-13)
(-88.322 0 7.43782401572e-14)
(-88.322 0 5.26100392296e-13)
(-88.322 0 2.89410440119e-13)
(-88.322 0 -1.86073993022e-12)
(-88.322 0 5.52094324429e-13)
(-88.322 0 7.73883580486e-13)
(-88.322 0 5.46908372561e-15)
(-88.322 0 6.9098118012e-13)
(-88.322 0 -5.3940871872e-13)
(-88.322 0 2.02114151372e-12)
(-88.322 0 -6.13703590707e-14)
(-88.322 0 8.45015398024e-13)
(-88.322 0 -8.66073109368e-13)
(-88.322 0 -3.84837920122e-13)
(-88.322 0 4.26077500648e-13)
(-88.322 0 -8.69769020858e-14)
(-88.322 0 -5.1923061039e-13)
(-88.322 0 -3.36370808497e-15)
(-88.322 0 -3.0839335375e-13)
(-88.322 0 6.56168476332e-13)
(-88.322 0 3.23035006333e-13)
(-88.322 0 9.23463392056e-14)
(-88.322 0 1.44279816561e-13)
(-88.322 0 -1.4234214644e-12)
(-88.322 0 -1.76382828977e-12)
(-88.322 0 -1.19361390286e-14)
(-88.322 0 2.41541866793e-15)
(-88.322 0 -2.85183128117e-14)
(-88.322 0 4.92974717775e-13)
(-88.322 0 1.71767036355e-13)
(-88.322 0 -9.32447582723e-14)
(-88.322 0 3.41141142748e-13)
(-88.322 0 -3.27747001683e-14)
(-88.322 0 -4.7946201701e-14)
(-88.322 0 2.24459107607e-13)
(-88.322 0 -8.91859421887e-13)
(-88.322 0 -5.16619191836e-15)
(-88.322 0 -3.20755743132e-14)
(-88.322 0 1.00211740314e-13)
(-88.322 0 2.43388669372e-13)
(-88.322 0 1.70155753563e-14)
(-88.322 0 6.40881049758e-16)
(-88.322 0 -2.62054576946e-16)
(-88.322 0 7.71053014675e-14)
(-88.322 0 -5.45235833923e-13)
(-88.322 0 -6.27933577662e-13)
(-88.322 0 -2.02473848331e-12)
(-88.322 0 -7.12068622537e-14)
(-88.322 0 5.50754787999e-13)
(-88.322 0 -1.29707681364e-12)
(-88.322 0 -1.35855114769e-13)
(-88.322 0 1.602228971e-13)
(-88.322 0 1.2531572193e-15)
(-88.322 0 1.4750492271e-13)
(-88.322 0 1.5887432755e-13)
(-88.322 0 1.40766121045e-15)
(-88.322 0 1.40399150542e-15)
(-88.322 0 8.91456036619e-16)
(-88.322 0 -5.93403535256e-14)
(-88.322 0 1.60224873095e-13)
(-88.322 0 7.3271777044e-16)
(-88.322 0 -2.90220598075e-13)
(-88.322 0 -1.41020177547e-15)
(-88.322 0 1.51252444303e-13)
(-88.322 0 1.61276008347e-13)
(-88.322 0 -1.87766573894e-15)
(-88.322 0 -2.87936253743e-13)
(-88.322 0 -4.66664155965e-15)
(-88.322 0 -5.86612699055e-14)
(-88.322 0 4.66344797532e-13)
(-88.322 0 -6.91030485901e-13)
(-88.322 0 8.86439549847e-13)
(-88.322 0 1.94675969795e-13)
(-88.322 0 7.23729533688e-13)
(-88.322 0 1.63516786694e-13)
(-88.322 0 -2.57573256494e-13)
(-88.322 0 -1.67562591055e-13)
(-88.322 0 5.42928154031e-17)
(-88.322 0 1.36341680017e-13)
(-88.322 0 2.11513046935e-13)
(-88.322 0 2.10678706564e-15)
(-88.322 0 6.03843846058e-13)
(-88.322 0 7.72768178348e-13)
(-88.322 0 -9.63441346813e-13)
(-88.322 0 1.42553455583e-13)
(-88.322 0 3.97361776525e-13)
(-88.322 0 -3.76358266849e-13)
(-88.322 0 8.54707516381e-13)
(-88.322 0 4.25190372982e-13)
(-88.322 0 -5.017056047e-13)
(-88.322 0 1.02344610514e-12)
(-88.322 0 1.33138977888e-12)
(-88.322 0 -2.89673341551e-14)
(-88.322 0 1.46755361935e-13)
(-88.322 0 -2.54220133093e-13)
(-88.322 0 1.59804644822e-13)
(-88.322 0 9.69728022e-13)
(-88.322 0 7.06309443924e-13)
(-88.322 0 -5.60892959754e-13)
(-88.322 0 -1.18048360418e-12)
(-88.322 0 -8.46164819458e-13)
(-88.322 0 4.3779373966e-13)
(-88.322 0 -8.54404060004e-13)
(-88.322 0 -4.14787229705e-13)
(-88.322 0 8.78609340268e-13)
(-88.322 0 3.88373351584e-14)
(-88.322 0 -8.202447519e-13)
(-88.322 0 -2.20679311428e-13)
(-88.322 0 4.22294599335e-14)
(-88.322 0 3.96643361195e-14)
(-88.322 0 1.81261033736e-13)
(-88.322 0 -1.43507672986e-13)
(-88.322 0 4.20567956073e-13)
(-88.322 0 1.51355101949e-13)
(-88.322 0 2.39424729278e-15)
(-88.322 0 6.94576926477e-13)
(-88.322 0 6.61517024362e-14)
(-88.322 0 -2.16628803933e-13)
(-88.322 0 4.03830337348e-14)
(-88.322 0 3.98807546211e-14)
(-88.322 0 -7.40383690147e-14)
(-88.322 0 -8.08746531005e-16)
(-88.322 0 -8.39899503836e-14)
(-88.322 0 6.90381794966e-13)
(-88.322 0 -5.38504089383e-13)
(-88.322 0 -3.34846469486e-15)
(-88.322 0 4.36948013794e-14)
(-88.322 0 6.01913675309e-13)
(-88.322 0 7.35459322381e-13)
(-88.322 0 -8.11687282062e-13)
(-88.322 0 5.47723799837e-13)
(-88.322 0 5.45865423573e-13)
(-88.322 0 -4.06976874172e-14)
(-88.322 0 3.97553542137e-13)
(-88.322 0 6.51806608479e-13)
(-88.322 0 -6.85863823507e-13)
(-88.322 0 4.38721234082e-13)
(-88.322 0 -9.44291696841e-13)
(-88.322 0 1.08453389692e-12)
(-88.322 0 -7.45834047352e-13)
(-88.322 0 6.44054138692e-13)
(-88.322 0 1.94318973363e-13)
(-88.322 0 -4.29432363803e-13)
(-88.322 0 8.64496877969e-14)
(-88.322 0 5.41664458172e-14)
(-88.322 0 -7.99901600939e-16)
(-88.322 0 -3.20263626278e-13)
(-88.322 0 -3.53007181001e-13)
(-88.322 0 7.7852321678e-15)
(-88.322 0 -8.85337038723e-14)
(-88.322 0 -4.43422690792e-15)
(-88.322 0 9.30599556909e-16)
(-88.322 0 3.8514965686e-15)
(-88.322 0 4.07800393618e-13)
(-88.322 0 2.21781916647e-15)
(-88.322 0 8.37351411217e-16)
(-88.322 0 -4.19865254607e-13)
(-88.322 0 -3.59612555955e-13)
(-88.322 0 1.46984389166e-13)
(-88.322 0 -7.40334760747e-14)
(-88.322 0 -1.44812206075e-15)
(-88.322 0 -4.14558014283e-13)
(-88.322 0 -3.16280584898e-14)
(-88.322 0 9.58530152347e-13)
(-88.322 0 -5.36508522608e-13)
(-88.322 0 -6.5462832936e-15)
(-88.322 0 -5.41145430148e-13)
(-88.322 0 -5.06019390007e-14)
(-88.322 0 -4.45464552307e-14)
(-88.322 0 -9.36979197957e-14)
(-88.322 0 -5.45538819825e-13)
(-88.322 0 -1.48988424491e-13)
(-88.322 0 1.43253277742e-12)
(-88.322 0 6.39670988049e-14)
(-88.322 0 -1.40201551041e-17)
(-88.322 0 -8.08087866e-16)
(-88.322 0 -4.82552096833e-14)
(-88.322 0 2.01732238583e-12)
(-88.322 0 -5.3532236103e-13)
(-88.322 0 -1.02083666258e-15)
(-88.322 0 1.47058253742e-13)
(-88.322 0 2.43499042808e-15)
(-88.322 0 4.9964445371e-16)
(-88.322 0 1.49079696642e-13)
(-88.322 0 5.41673303102e-13)
(-88.322 0 -7.29531713717e-14)
(-88.322 0 -4.20416463121e-16)
(-88.322 0 7.73555000743e-16)
(-88.322 0 9.98943578767e-14)
(-88.322 0 1.74339217294e-15)
(-88.322 0 1.46714148324e-13)
(-88.322 0 8.15521371055e-16)
(-88.322 0 -3.5553796014e-15)
(-88.322 0 -5.42262431901e-13)
(-88.322 0 -1.64675660723e-15)
(-88.322 0 1.57309715878e-13)
(-88.322 0 1.37867995024e-15)
(-88.322 0 7.75339041957e-14)
(-88.322 0 6.24005581858e-13)
(-88.322 0 2.50970185863e-15)
(-88.322 0 -5.08113003773e-18)
(-88.322 0 9.31540506916e-18)
(-88.322 0 3.63097552496e-14)
(-88.322 0 -1.83812154715e-13)
(-88.322 0 1.05298629342e-12)
(-88.322 0 8.88432764246e-14)
(-88.322 0 -1.65897390212e-13)
(-88.322 0 7.17350174926e-14)
(-88.322 0 6.71931364944e-13)
(-88.322 0 -4.62747169276e-13)
(-88.322 0 -7.83518438082e-13)
(-88.322 0 9.65997061127e-13)
(-88.322 0 -1.54072471474e-13)
(-88.322 0 -8.64307652922e-13)
(-88.322 0 2.98182446559e-13)
(-88.322 0 -4.39336615387e-13)
(-88.322 0 5.76553096626e-13)
(-88.322 0 -4.6606891099e-13)
(-88.322 0 -8.4917416577e-13)
(-88.322 0 -6.18691002124e-13)
(-88.322 0 4.52245226248e-13)
(-88.322 0 3.95409493451e-13)
(-88.322 0 1.84790631307e-13)
(-88.322 0 -8.19066870681e-14)
(-88.322 0 -4.44087754257e-13)
(-88.322 0 4.54734133111e-13)
(-88.322 0 7.11656110054e-13)
(-88.322 0 9.94993752923e-13)
(-88.322 0 4.19785085667e-13)
(-88.322 0 -4.41532322228e-13)
(-88.322 0 4.28619194807e-13)
(-88.322 0 4.62598875555e-13)
(-88.322 0 -8.7741094634e-13)
(-88.322 0 -4.11635517656e-14)
(-88.322 0 3.98168829346e-13)
(-88.322 0 7.12173162083e-13)
(-88.322 0 -3.73298391522e-14)
(-88.322 0 -1.8715439182e-13)
(-88.322 0 -1.88942479118e-13)
(-88.322 0 3.62388076191e-15)
(-88.322 0 7.86627336905e-13)
(-88.322 0 -1.41422245485e-13)
(-88.322 0 5.35731203808e-13)
(-88.322 0 -6.91973223713e-13)
(-88.322 0 -2.09185324808e-13)
(-88.322 0 7.09245019756e-13)
(-88.322 0 -3.68055418083e-14)
(-88.322 0 -1.89639158503e-13)
(-88.322 0 -4.67497649481e-13)
(-88.322 0 7.40406272947e-14)
(-88.322 0 8.43482641463e-14)
(-88.322 0 -6.89518285144e-13)
(-88.322 0 4.38113944948e-13)
(-88.322 0 2.77796670563e-15)
(-88.322 0 -1.91053782744e-13)
(-88.322 0 -6.03319925094e-13)
(-88.322 0 -7.35422531235e-13)
(-88.322 0 3.86586581615e-13)
(-88.322 0 -6.28042821958e-13)
(-88.322 0 -7.02621954942e-13)
(-88.322 0 3.80858924828e-14)
(-88.322 0 -5.46213198695e-13)
(-88.322 0 -8.08633334719e-13)
(-88.322 0 6.85252488288e-13)
(-88.322 0 -4.38481009546e-13)
(-88.322 0 9.39392922915e-13)
(-88.322 0 -1.08530453498e-12)
(-88.322 0 7.47274827861e-13)
(-88.322 0 3.36382503541e-14)
(-88.322 0 3.02477789246e-15)
(-88.322 0 4.0945985305e-13)
(-88.322 0 6.20180149605e-16)
(-88.322 0 -4.69880323089e-14)
(-88.322 0 5.44285192131e-13)
(-88.322 0 3.1716272553e-13)
(-88.322 0 -3.06823002283e-13)
(-88.322 0 -1.41351391949e-14)
(-88.322 0 -4.15356033984e-13)
(-88.322 0 -1.45382798159e-13)
(-88.322 0 8.63882249424e-13)
(-88.322 0 1.45920315851e-12)
(-88.322 0 -4.04322266012e-13)
(-88.322 0 -1.3604067011e-14)
(-88.322 0 -3.41254339034e-15)
(-88.322 0 -1.44945068216e-13)
(-88.322 0 4.32935802964e-13)
(-88.322 0 -3.34776839186e-14)
(-88.322 0 7.35709050512e-14)
(-88.322 0 7.96325990912e-16)
(-88.322 0 4.175785579e-13)
(-88.322 0 5.13039818009e-14)
(-88.322 0 4.29761978591e-14)
(-88.322 0 5.39199921913e-13)
(-88.322 0 4.13556937571e-15)
(-88.322 0 5.41810211328e-13)
(-88.322 0 1.84199526513e-13)
(-88.322 0 -6.8152068056e-15)
(-88.322 0 5.58008195223e-13)
(-88.322 0 5.43692487722e-13)
(-88.322 0 7.47702399301e-14)
(-88.322 0 -8.15603986466e-13)
(-88.322 0 4.77799264253e-13)
(-88.322 0 1.58593548068e-13)
(-88.322 0 7.36123068515e-14)
(-88.322 0 -5.01413910198e-13)
(-88.322 0 -2.01676308515e-12)
(-88.322 0 5.37407506245e-13)
(-88.322 0 5.40493163603e-13)
(-88.322 0 -1.4615447126e-13)
(-88.322 0 -1.44727332385e-13)
(-88.322 0 5.39190512413e-13)
(-88.322 0 -1.49076215127e-13)
(-88.322 0 -5.3941022424e-13)
(-88.322 0 7.16338653669e-14)
(-88.322 0 6.47662476459e-14)
(-88.322 0 5.37810609228e-13)
(-88.322 0 -9.19069155524e-14)
(-88.322 0 5.53985822133e-13)
(-88.322 0 -1.45279387754e-13)
(-88.322 0 -1.48755539364e-13)
(-88.322 0 5.41389983055e-13)
(-88.322 0 5.44445530012e-13)
(-88.322 0 5.6839515416e-13)
(-88.322 0 -1.55619769665e-13)
(-88.322 0 5.88328991868e-14)
(-88.322 0 -5.39399779695e-13)
(-88.322 0 6.69628954372e-14)
(-88.322 0 -8.16055924754e-13)
(-88.322 0 -5.39474867505e-14)
(-88.322 0 -2.01840071454e-12)
(-88.322 0 -2.06367744107e-13)
(-88.322 0 7.70215165525e-14)
(-88.322 0 -4.18500089758e-13)
(-88.322 0 2.97339167163e-13)
(-88.322 0 -4.68532129919e-13)
(-88.322 0 -4.69178938954e-13)
(-88.322 0 5.32960764702e-13)
(-88.322 0 -1.36512180159e-13)
(-88.322 0 -3.14193463688e-13)
(-88.322 0 -1.48482409806e-12)
(-88.322 0 -3.29726854593e-13)
(-88.322 0 -4.66891113107e-13)
(-88.322 0 5.35219044719e-13)
(-88.322 0 -4.07787973078e-13)
(-88.322 0 -1.72966088949e-13)
(-88.322 0 1.36879997516e-15)
(-88.322 0 -1.77914450941e-13)
(-88.322 0 -2.63080118358e-13)
(-88.322 0 -4.94707853593e-13)
(-88.322 0 -1.750298746e-13)
(-88.322 0 7.17442388027e-14)
(-88.322 0 -5.41841827248e-13)
(-88.322 0 -4.6127655851e-13)
(-88.322 0 4.69090866033e-14)
(-88.322 0 -2.87589513665e-13)
(-88.322 0 -8.2499739629e-13)
(-88.322 0 -1.17227626184e-12)
(-88.322 0 -4.69130385933e-13)
(-88.322 0 -1.05546079999e-13)
(-88.322 0 -1.17622702863e-12)
(-88.322 0 -3.86620361721e-14)
(-88.322 0 -7.08896303683e-13)
(-88.322 0 -1.16982141737e-12)
(-88.322 0 -1.18190189813e-13)
(-88.322 0 -1.53072241617e-13)
(-88.322 0 -6.27693353125e-13)
(-88.322 0 -6.2763604927e-13)
(-88.322 0 -6.8889161244e-13)
(-88.322 0 -4.64565837449e-14)
(-88.322 0 1.48074526797e-12)
(-88.322 0 -1.1497739129e-12)
(-88.322 0 -6.00552685219e-13)
(-88.322 0 4.39447647488e-13)
(-88.322 0 -1.84023098386e-13)
(-88.322 0 -6.17408675454e-13)
(-88.322 0 -4.83787376002e-13)
(-88.322 0 1.85627229958e-12)
(-88.322 0 -6.91599196085e-13)
(-88.322 0 4.2690337247e-14)
(-88.322 0 -5.66729390363e-13)
(-88.322 0 9.51687752086e-13)
(-88.322 0 -1.04125621868e-13)
(-88.322 0 4.37470241048e-13)
(-88.322 0 -1.84756286632e-13)
(-88.322 0 -6.19495420285e-13)
(-88.322 0 -1.17083162129e-12)
(-88.322 0 -1.3533298161e-13)
(-88.322 0 7.22984583568e-13)
(-88.322 0 7.80920757398e-14)
(-88.322 0 1.39923321533e-12)
(-88.322 0 3.94540337929e-16)
(-88.322 0 -8.41631228229e-13)
(-88.322 0 5.36870129696e-13)
(-88.322 0 -6.0201981447e-16)
(-88.322 0 7.77205886771e-14)
(-88.322 0 -3.00912741678e-13)
(-88.322 0 -1.77893487542e-13)
(-88.322 0 -6.31348285238e-14)
(-88.322 0 -9.23811543559e-14)
(-88.322 0 -1.15788499605e-12)
(-88.322 0 3.7711827217e-13)
(-88.322 0 -1.13533776379e-12)
(-88.322 0 7.60689579488e-13)
(-88.322 0 6.90345850676e-14)
(-88.322 0 -3.64679571743e-13)
(-88.322 0 -6.65732386298e-13)
(-88.322 0 -6.04425729543e-13)
(-88.322 0 -5.45912847453e-13)
(-88.322 0 -1.68186241694e-12)
(-88.322 0 -1.0240772944e-13)
(-88.322 0 1.99465969901e-13)
(-88.322 0 3.3609463967e-13)
(-88.322 0 -1.14339634194e-13)
(-88.322 0 -1.20797458777e-12)
(-88.322 0 -3.34300153912e-13)
(-88.322 0 7.68943122474e-13)
(-88.322 0 3.76176757593e-13)
(-88.322 0 4.88470013712e-13)
(-88.322 0 -9.18279792563e-13)
(-88.322 0 -1.2594060683e-13)
(-88.322 0 -5.54819880219e-14)
(-88.322 0 3.73442827348e-13)
(-88.322 0 5.16726083757e-13)
(-88.322 0 -5.92699422366e-13)
(-88.322 0 3.71271961587e-13)
(-88.322 0 1.86316005363e-13)
(-88.322 0 -3.99877218179e-13)
(-88.322 0 -2.52941476128e-14)
(-88.322 0 3.76696161997e-14)
(-88.322 0 -4.57708476083e-13)
(-88.322 0 6.56464405109e-13)
(-88.322 0 7.72244163289e-13)
(-88.322 0 1.01572928004e-12)
(-88.322 0 7.81117510045e-13)
(-88.322 0 -8.99113111396e-13)
(-88.322 0 7.61470473899e-13)
(-88.322 0 1.43938157614e-13)
(-88.322 0 5.27287683015e-14)
(-88.322 0 1.09744693025e-13)
(-88.322 0 -5.21433468451e-13)
(-88.322 0 9.60461546331e-14)
(-88.322 0 -4.41075208715e-13)
(-88.322 0 3.72557769771e-13)
(-88.322 0 7.70262240289e-13)
(-88.322 0 4.80351026576e-13)
(-88.322 0 2.221987575e-13)
(-88.322 0 -5.27846230939e-13)
(-88.322 0 -6.59789722434e-13)
(-88.322 0 7.59836608307e-13)
(-88.322 0 -3.92042774326e-13)
(-88.322 0 8.30018870098e-13)
(-88.322 0 8.23082468931e-13)
(-88.322 0 1.28985182311e-12)
(-88.322 0 7.82641002201e-13)
(-88.322 0 -5.9524798546e-13)
(-88.322 0 -3.56102530144e-15)
(-88.322 0 -9.11338310266e-14)
(-88.322 0 6.25164267697e-13)
(-88.322 0 2.46604554211e-13)
(-88.322 0 -2.44098230097e-14)
(-88.322 0 -5.20104796497e-13)
(-88.322 0 -2.76401335797e-13)
(-88.322 0 4.07554711571e-13)
(-88.322 0 -2.41493972438e-13)
(-88.322 0 -2.28293290695e-15)
(-88.322 0 -2.0545558717e-13)
(-88.322 0 -9.59063294621e-15)
(-88.322 0 6.70215542606e-13)
(-88.322 0 3.22385750829e-13)
(-88.322 0 -1.62266828705e-15)
(-88.322 0 -1.00792447611e-12)
(-88.322 0 -6.3707961173e-15)
(-88.322 0 -8.33731858825e-13)
(-88.322 0 -1.04594120877e-14)
(-88.322 0 -3.19475862932e-13)
(-88.322 0 -8.67292440439e-14)
(-88.322 0 -7.4212256576e-14)
(-88.322 0 2.4244254414e-13)
(-88.322 0 -3.34736378335e-14)
(-88.322 0 5.41250722454e-13)
(-88.322 0 2.97424887708e-14)
(-88.322 0 -4.6335859859e-14)
(-88.322 0 2.14561442673e-13)
(-88.322 0 5.17752754309e-13)
(-88.322 0 1.16774332928e-12)
(-88.322 0 3.76887174848e-14)
(-88.322 0 1.07255315686e-13)
(-88.322 0 1.17692916553e-12)
(-88.322 0 4.26451434181e-13)
(-88.322 0 7.1322269772e-13)
(-88.322 0 1.16920246045e-12)
(-88.322 0 5.6832439472e-15)
(-88.322 0 1.93299171745e-13)
(-88.322 0 1.16993818926e-12)
(-88.322 0 7.0772359769e-13)
(-88.322 0 7.65896702732e-13)
(-88.322 0 5.34558403719e-14)
(-88.322 0 -1.03912412006e-12)
(-88.322 0 1.14798168542e-12)
(-88.322 0 4.55703311618e-13)
(-88.322 0 -4.40142915448e-13)
(-88.322 0 -3.63423121198e-15)
(-88.322 0 4.68925635212e-13)
(-88.322 0 4.8156212333e-13)
(-88.322 0 -1.85773340675e-12)
(-88.322 0 6.90518609097e-13)
(-88.322 0 4.73871833018e-15)
(-88.322 0 4.22412406276e-13)
(-88.322 0 -9.52547780392e-13)
(-88.322 0 6.75825110168e-14)
(-88.322 0 -4.40898310114e-13)
(-88.322 0 -3.21334427386e-15)
(-88.322 0 4.71596051331e-13)
(-88.322 0 1.17075935633e-12)
(-88.322 0 8.10351791717e-14)
(-88.322 0 -7.1587485941e-13)
(-88.322 0 -2.86736636579e-14)
(-88.322 0 -1.85891674548e-12)
(-88.322 0 6.92459788961e-13)
(-88.322 0 1.90527509405e-13)
(-88.322 0 -3.06224652174e-14)
(-88.322 0 -7.17597080208e-13)
(-88.322 0 -6.3170678719e-15)
(-88.322 0 -3.25837222922e-15)
(-88.322 0 1.84659632712e-13)
(-88.322 0 9.00745941943e-13)
(-88.322 0 -3.1452863008e-13)
(-88.322 0 1.12231576846e-12)
(-88.322 0 -3.25169645519e-13)
(-88.322 0 8.96012210648e-13)
(-88.322 0 -7.55282033893e-13)
(-88.322 0 -7.39283437304e-13)
(-88.322 0 3.8919197809e-14)
(-88.322 0 2.17855614553e-13)
(-88.322 0 7.43519217855e-13)
(-88.322 0 -3.21236944965e-13)
(-88.322 0 2.16364773361e-13)
(-88.322 0 1.02032760863e-13)
(-88.322 0 -2.26976901635e-14)
(-88.322 0 -3.35228777474e-13)
(-88.322 0 1.86588316295e-13)
(-88.322 0 9.63548991494e-13)
(-88.322 0 3.99802412653e-13)
(-88.322 0 -1.10947565876e-12)
(-88.322 0 -3.78876813638e-13)
(-88.322 0 -4.43032667014e-13)
(-88.322 0 6.72523787068e-13)
(-88.322 0 -6.07225149908e-14)
(-88.322 0 -4.24962192605e-14)
(-88.322 0 -3.7573902765e-13)
(-88.322 0 -6.20433076967e-13)
(-88.322 0 2.15578703726e-13)
(-88.322 0 -3.72841089818e-13)
(-88.322 0 -1.10619494246e-13)
(-88.322 0 3.03323326922e-13)
(-88.322 0 -5.16798913287e-14)
(-88.322 0 -1.85014765599e-13)
(-88.322 0 3.60437863206e-13)
(-88.322 0 -8.13342130839e-13)
(-88.322 0 -1.11494464839e-12)
(-88.322 0 -5.81711478659e-13)
(-88.322 0 1.23842871703e-12)
(-88.322 0 -9.21683114643e-14)
(-88.322 0 -1.12490535697e-12)
(-88.322 0 3.95918171025e-13)
(-88.322 0 9.54714223688e-14)
(-88.322 0 -4.50782048987e-13)
(-88.322 0 5.95309241305e-13)
(-88.322 0 -2.58771696466e-13)
(-88.322 0 1.00103625158e-13)
(-88.322 0 -4.37221736151e-13)
(-88.322 0 -1.1131619245e-12)
(-88.322 0 -4.72457961538e-13)
(-88.322 0 -1.46595118148e-13)
(-88.322 0 6.03618206247e-13)
(-88.322 0 8.06392744562e-13)
(-88.322 0 -1.10127593811e-12)
(-88.322 0 2.94380255771e-13)
(-88.322 0 -7.62894507639e-13)
(-88.322 0 1.1944827761e-12)
(-88.322 0 -1.34437498307e-12)
(-88.322 0 -9.47976080688e-13)
(-88.322 0 2.53807714704e-13)
(-88.322 0 -1.4539371318e-13)
(-88.322 0 1.36632433569e-13)
(-88.322 0 9.42119607845e-14)
(-88.322 0 -2.43401278102e-13)
(-88.322 0 -5.40871994721e-14)
(-88.322 0 5.14878361008e-14)
(-88.322 0 -5.86653159906e-13)
(-88.322 0 -1.083636607e-13)
(-88.322 0 -1.86954345848e-13)
(-88.322 0 -4.3709809532e-13)
(-88.322 0 -1.99123746383e-13)
(-88.322 0 3.16931345923e-13)
(-88.322 0 1.37209330019e-15)
(-88.322 0 1.19356685536e-14)
(-88.322 0 4.1283965138e-13)
(-88.322 0 6.17878115413e-13)
(-88.322 0 -4.52469172349e-13)
(-88.322 0 -4.4783584042e-13)
(-88.322 0 4.13588365301e-13)
(-88.322 0 3.30578790729e-13)
(-88.322 0 8.53186658885e-14)
(-88.322 0 1.44343048402e-13)
(-88.322 0 -4.30003614553e-13)
(-88.322 0 3.47184205978e-14)
(-88.322 0 -7.75931840461e-14)
(-88.322 0 -3.57467848604e-14)
(-88.322 0 -4.22383613206e-13)
(-88.322 0 -7.45263456883e-14)
(-88.322 0 4.51374377016e-13)
(-88.322 0 1.42864439561e-15)
(-88.322 0 -3.63981104552e-14)
(-88.322 0 -5.40926376986e-13)
(-88.322 0 -5.64082592088e-14)
(-88.322 0 -1.16172350751e-12)
(-88.322 0 -2.44552906816e-14)
(-88.322 0 3.39777047523e-16)
(-88.322 0 7.21487532107e-14)
(-88.322 0 -2.19147256627e-16)
(-88.322 0 -1.88331143898e-15)
(-88.322 0 -1.97138435964e-15)
(-88.322 0 -5.52394111101e-15)
(-88.322 0 -7.63196646687e-13)
(-88.322 0 -4.59654078413e-15)
(-88.322 0 1.27366992946e-15)
(-88.322 0 -2.24567128667e-15)
(-88.322 0 1.21109675399e-15)
(-88.322 0 1.87688475044e-13)
(-88.322 0 4.70286813492e-16)
(-88.322 0 8.50618806316e-17)
(-88.322 0 7.30459490423e-16)
(-88.322 0 6.49820074825e-16)
(-88.322 0 -4.84200641245e-14)
(-88.322 0 -2.6134886444e-15)
(-88.322 0 6.97996715182e-16)
(-88.322 0 -1.04445450775e-17)
(-88.322 0 2.97744810711e-15)
(-88.322 0 1.88578331465e-13)
(-88.322 0 -1.10552216321e-15)
(-88.322 0 -1.8320296636e-16)
(-88.322 0 -1.76145841308e-15)
(-88.322 0 -7.18979900338e-16)
(-88.322 0 -5.11209670246e-14)
(-88.322 0 6.8821083511e-16)
(-88.322 0 -5.48479759072e-16)
(-88.322 0 3.57316355653e-15)
(-88.322 0 6.97993327762e-13)
(-88.322 0 7.22910342612e-13)
(-88.322 0 1.06814480608e-13)
(-88.322 0 -3.93266190193e-13)
(-88.322 0 8.91590656077e-13)
(-88.322 0 -9.19476963257e-13)
(-88.322 0 4.83137932307e-13)
(-88.322 0 9.31429474816e-13)
(-88.322 0 -4.77507663845e-14)
(-88.322 0 2.33816008571e-13)
(-88.322 0 -2.27474664189e-15)
(-88.322 0 7.29534442472e-13)
(-88.322 0 3.39788715303e-13)
(-88.322 0 1.3848390326e-12)
(-88.322 0 4.12729936609e-13)
(-88.322 0 4.58526067544e-13)
(-88.322 0 1.28824957343e-12)
(-88.322 0 1.29457680357e-12)
(-88.322 0 -1.69861048021e-13)
(-88.322 0 -1.50832498315e-13)
(-88.322 0 -6.71661218197e-13)
(-88.322 0 -3.75970595446e-13)
(-88.322 0 -1.818075375e-13)
(-88.322 0 2.67223779904e-13)
(-88.322 0 3.32746269071e-14)
(-88.322 0 -1.20713309618e-12)
(-88.322 0 1.84451418829e-13)
(-88.322 0 -8.17128795952e-13)
(-88.322 0 -2.97213926717e-13)
(-88.322 0 4.15390849134e-14)
(-88.322 0 5.25198397619e-13)
(-88.322 0 1.9734516268e-13)
(-88.322 0 6.86507715597e-15)
(-88.322 0 8.86714401344e-13)
(-88.322 0 -2.89523824595e-13)
(-88.322 0 1.45408486095e-13)
(-88.322 0 -4.74549317023e-15)
(-88.322 0 -7.49180914047e-13)
(-88.322 0 6.63484550826e-14)
(-88.322 0 4.5791313271e-13)
(-88.322 0 1.17697790674e-13)
(-88.322 0 -1.95031837088e-12)
(-88.322 0 6.0130760941e-13)
(-88.322 0 2.86095849624e-13)
(-88.322 0 -3.55049324801e-13)
(-88.322 0 -1.61843401202e-15)
(-88.322 0 2.64737131321e-13)
(-88.322 0 -3.76152010608e-13)
(-88.322 0 6.27170184922e-13)
(-88.322 0 4.17394319889e-13)
(-88.322 0 1.83673441364e-15)
(-88.322 0 2.33984532717e-13)
(-88.322 0 5.12668142756e-13)
(-88.322 0 7.46531857493e-14)
(-88.322 0 1.12661732141e-13)
(-88.322 0 3.77443276302e-15)
(-88.322 0 2.65671118298e-13)
(-88.322 0 -2.93212254527e-13)
(-88.322 0 6.90281866075e-14)
(-88.322 0 -1.31908271736e-12)
(-88.322 0 -1.0105803075e-15)
(-88.322 0 8.12936769576e-13)
(-88.322 0 -2.85000395626e-13)
(-88.322 0 1.86086413562e-13)
(-88.322 0 -2.9764130621e-15)
(-88.322 0 -7.20572646415e-13)
(-88.322 0 -3.24834761412e-15)
(-88.322 0 2.00337226e-13)
(-88.322 0 3.01620769666e-13)
(-88.322 0 9.42028712074e-13)
(-88.322 0 3.29182515014e-13)
(-88.322 0 -6.93242377082e-13)
(-88.322 0 -3.62001345738e-14)