/*--------------------------------*- C++ -*----------------------------------*\
  =========                 |
  \\      /  F ield         | OpenFOAM: The Open Source CFD Toolbox
   \\    /   O peration     | Website:  https://openfoam.org
    \\  /    A nd           | Version:  6
     \\/     M anipulation  |
\*---------------------------------------------------------------------------*/
FoamFile
{
    version     2.0;
    format      ascii;
    class       volVectorField;
    location    "1e-05";
    object      U;
}
// * * * * * * * * * * * * * * * * * * * * * * * * * * * * * * * * * * * * * //

dimensions      [0 1 -1 0 0 0 0];

internalField   nonuniform List<vector> 
8192
(
(-88.322 0 -1.14983288223e-11)
(-88.322 0 -3.22356393188e-13)
(-88.322 0 -5.54433121538e-12)
(-88.322 0 -9.64789888135e-12)
(-88.322 0 1.72660016731e-12)
(-88.322 0 -1.24045307688e-12)
(-88.322 0 -3.85004938749e-13)
(-88.322 0 6.91764615096e-13)
(-88.322 0 -5.63948120923e-12)
(-88.322 0 -1.5438527713e-11)
(-88.322 0 -1.97379698368e-11)
(-88.322 0 4.56289260007e-12)
(-88.322 0 -4.00234374573e-12)
(-88.322 0 -1.12528847418e-11)
(-88.322 0 -3.20505493713e-11)
(-88.322 0 6.89855982692e-12)
(-88.322 0 -2.57819981991e-12)
(-88.322 0 1.27036911447e-11)
(-88.322 0 -1.70004433747e-11)
(-88.322 0 -2.18554330153e-11)
(-88.322 0 1.05479176571e-11)
(-88.322 0 1.3624499364e-11)
(-88.322 0 -2.74925549806e-13)
(-88.322 0 -3.44458264398e-12)
(-88.322 0 2.66812848217e-12)
(-88.322 0 1.73208214205e-12)
(-88.322 0 4.75795144242e-12)
(-88.322 0 5.52058333091e-12)
(-88.322 0 1.78422620402e-12)
(-88.322 0 -3.77246203733e-12)
(-88.322 0 8.48660322381e-12)
(-88.322 0 -8.05890183163e-13)
(-88.322 0 -5.14800815357e-12)
(-88.322 0 2.01181265307e-11)
(-88.3220000001 0 -1.39846217267e-11)
(-88.322 0 -8.92690308971e-12)
(-88.322 0 4.56144306658e-12)
(-88.322 0 -2.68939708569e-11)
(-88.322 0 1.25827726703e-11)
(-88.322 0 -2.69914332354e-13)
(-88.322 0 5.63894637324e-12)
(-88.322 0 -6.41528705648e-13)
(-88.322 0 -3.87568359443e-12)
(-88.322 0 -1.1449065667e-12)
(-88.322 0 -7.90040990617e-12)
(-88.322 0 -1.93374099594e-12)
(-88.322 0 -3.02365251625e-13)
(-88.322 0 -1.01069792625e-13)
(-88.322 0 1.94058791276e-12)
(-88.322 0 -4.09888088808e-12)
(-88.322 0 -7.7035558253e-13)
(-88.322 0 -5.42936942504e-12)
(-88.322 0 -6.39608697159e-13)
(-88.322 0 8.69057954347e-12)
(-88.322 0 3.26792963062e-12)
(-88.322 0 -1.32354389307e-11)
(-88.322 0 4.89709705936e-12)
(-88.322 0 -7.95735516555e-12)
(-88.322 0 -2.24347689716e-12)
(-88.322 0 -3.47639061211e-13)
(-88.322 0 1.140097757e-11)
(-88.322 0 2.31437252138e-11)
(-88.322 0 2.24961840258e-11)
(-88.3220000001 0 1.45746761386e-11)
(-88.322 0 2.58577693717e-12)
(-88.322 0 -2.47447551322e-13)
(-88.322 0 3.33210270338e-12)
(-88.322 0 -2.38933835659e-13)
(-88.322 0 -9.86077969321e-14)
(-88.322 0 -2.89179907367e-13)
(-88.322 0 -9.39181020973e-14)
(-88.322 0 1.62751417958e-14)
(-88.322 0 -1.68683919562e-13)
(-88.322 0 -4.24033992471e-12)
(-88.322 0 -3.16020788601e-13)
(-88.322 0 -8.2321537812e-12)
(-88.322 0 -6.28677869118e-14)
(-88.3220000001 0 -5.3736149379e-14)
(-88.322 0 8.61315525995e-14)
(-88.3219999999 0 2.43799864525e-12)
(-88.322 0 4.48612030081e-14)
(-88.322 0 6.67082461368e-13)
(-88.3220000001 0 -5.58807692215e-12)
(-88.3219999999 0 -2.330437709e-13)
(-88.3219999999 0 1.94171620592e-13)
(-88.322 0 1.15724994889e-13)
(-88.322 0 1.23896863415e-13)
(-88.322 0 4.57730023839e-13)
(-88.322 0 1.17067554592e-11)
(-88.322 0 -1.73797475678e-11)
(-88.322 0 1.26338065995e-11)
(-88.322 0 1.07566280845e-11)
(-88.322 0 3.44382677884e-12)
(-88.322 0 -2.29390814783e-13)
(-88.322 0 -2.47416970447e-13)
(-88.322 0 -3.38154473331e-13)
(-88.322 0 1.69005404542e-12)
(-88.322 0 -1.81066116883e-11)
(-88.322 0 3.36432845331e-12)
(-88.322 0 6.2626433235e-13)
(-88.322 0 -8.6488816262e-12)
(-88.322 0 2.34182273361e-12)
(-88.322 0 -8.66662624962e-12)
(-88.322 0 2.64982060607e-13)
(-88.322 0 2.96679909359e-12)
(-88.322 0 -7.95530888157e-13)
(-88.322 0 -2.03186956704e-13)
(-88.322 0 1.16975094021e-12)
(-88.322 0 -1.32547272768e-11)
(-88.322 0 -1.48334733348e-11)
(-88.322 0 -2.0139035569e-11)
(-88.322 0 -5.09093238442e-12)
(-88.322 0 -1.64933047247e-11)
(-88.322 0 -5.87008039201e-12)
(-88.322 0 5.10503176752e-12)
(-88.322 0 -6.48625726981e-13)
(-88.322 0 -3.7851313646e-13)
(-88.322 0 -4.15422559149e-13)
(-88.322 0 -6.81181976196e-12)
(-88.322 0 2.84847256012e-11)
(-88.322 0 -6.44478245178e-12)
(-88.322 0 -1.26123144545e-11)
(-88.322 0 -2.77554009906e-11)
(-88.322 0 -2.15091197527e-12)
(-88.322 0 -5.65913680801e-14)
(-88.322 0 -4.31280740591e-11)
(-88.322 0 -3.47999358496e-11)
(-88.322 0 -1.77316098241e-11)
(-88.322 0 2.35966468589e-12)
(-88.322 0 1.6740992971e-12)
(-88.322 0 -1.88787645794e-12)
(-88.322 0 9.89679822444e-12)
(-88.322 0 1.72899187404e-12)
(-88.322 0 4.0669270727e-12)
(-88.322 0 7.25435287861e-13)
(-88.322 0 8.78972170591e-13)
(-88.322 0 8.24047319068e-13)
(-88.322 0 1.46812204725e-11)
(-88.322 0 1.91273129482e-11)
(-88.322 0 -2.80937768695e-12)
(-88.322 0 9.62364900005e-13)
(-88.322 0 3.23731139968e-12)
(-88.322 0 3.00050451564e-11)
(-88.322 0 -6.58427904308e-12)
(-88.322 0 1.93625841359e-12)
(-88.322 0 -8.02772477048e-12)
(-88.322 0 1.67621327302e-11)
(-88.322 0 1.84981205676e-11)
(-88.322 0 -1.04491691882e-11)
(-88.322 0 -7.849325448e-12)
(-88.322 0 5.22981030109e-12)
(-88.322 0 3.56284905074e-12)
(-88.322 0 2.55241769563e-12)
(-88.322 0 -1.66476083876e-12)
(-88.3219999999 0 3.46722481809e-13)
(-88.322 0 1.25466377436e-12)
(-88.322 0 3.63775328195e-12)
(-88.322 0 -1.67322744105e-11)
(-88.322 0 7.42553088026e-12)
(-88.322 0 1.28003159836e-12)
(-88.322 0 1.07767832336e-12)
(-88.322 0 1.01888842559e-11)
(-88.322 0 3.03053632772e-11)
(-88.322 0 3.8356222715e-12)
(-88.322 0 -8.60204094666e-12)
(-88.322 0 1.23600914878e-11)
(-88.322 0 3.01313075681e-11)
(-88.322 0 -2.15933061734e-11)
(-88.322 0 -1.51705188045e-11)
(-88.322 0 -8.04279841322e-14)
(-88.322 0 -1.07005966757e-11)
(-88.322 0 -1.04277538247e-12)
(-88.322 0 -8.41278456662e-12)
(-88.322 0 -7.91530815582e-13)
(-88.322 0 -8.15261678263e-12)
(-88.322 0 -2.84368743414e-11)
(-88.322 0 2.36623699887e-12)
(-88.322 0 7.49614409716e-13)
(-88.322 0 -1.65318301349e-12)
(-88.322 0 9.07100713681e-12)
(-88.322 0 -2.76093325222e-11)
(-88.322 0 6.71264814778e-12)
(-88.322 0 -7.51353125367e-12)
(-88.322 0 -1.74319486514e-11)
(-88.3220000001 0 -1.03089237889e-11)
(-88.322 0 -8.54145740998e-12)
(-88.322 0 -1.88170824836e-12)
(-88.3219999999 0 -4.59845185359e-13)
(-88.322 0 1.84502888795e-13)
(-88.322 0 5.31841024784e-12)
(-88.322 0 3.16485617905e-13)
(-88.322 0 3.07060174679e-12)
(-88.322 0 8.63495376261e-12)
(-88.322 0 -5.35618195712e-13)
(-88.322 0 1.38866493533e-12)
(-88.322 0 6.07184143307e-12)
(-88.322 0 -5.38162364569e-12)
(-88.322 0 -1.04759257603e-13)
(-88.322 0 1.28694485216e-13)
(-88.322 0 3.6043365716e-12)
(-88.322 0 3.74447197385e-13)
(-88.322 0 7.70634451883e-12)
(-88.322 0 1.99137390159e-13)
(-88.322 0 4.54255876451e-12)
(-88.322 0 4.80404199661e-12)
(-88.322 0 7.75856874974e-12)
(-88.322 0 3.64662352358e-13)
(-88.322 0 -5.44123593377e-12)
(-88.322 0 3.6835002953e-13)
(-88.322 0 -4.24190190172e-12)
(-88.322 0 5.67434905269e-12)
(-88.322 0 7.72630046887e-14)
(-88.322 0 -2.82001540906e-12)
(-88.322 0 -2.35956991642e-11)
(-88.322 0 3.67093089692e-12)
(-88.322 0 2.89818247852e-14)
(-88.322 0 -7.61837820781e-12)
(-88.322 0 2.09483690646e-11)
(-88.322 0 -8.67493850788e-12)
(-88.322 0 -1.30154766232e-11)
(-88.322 0 -3.13352141468e-12)
(-88.322 0 6.46384289969e-13)
(-88.322 0 4.35702948745e-12)
(-88.322 0 -1.89211261487e-12)
(-88.322 0 -1.58173696174e-13)
(-88.3219999999 0 -1.90325092239e-12)
(-88.322 0 6.56733977877e-12)
(-88.3220000001 0 8.35098758081e-12)
(-88.322 0 -1.62433376856e-14)
(-88.3219999999 0 2.37886281662e-11)
(-88.3220000001 0 -3.8392982809e-12)
(-88.3220000001 0 1.32327869572e-13)
(-88.322 0 -2.58972975082e-12)
(-88.322 0 -1.7923950615e-12)
(-88.322 0 2.32460193706e-13)
(-88.322 0 9.34333246537e-14)
(-88.322 0 2.06658120338e-11)
(-88.322 0 1.61080528806e-11)
(-88.3220000001 0 2.00617236349e-11)
(-88.322 0 4.75993919931e-12)
(-88.322 0 1.70937341454e-11)
(-88.322 0 6.74906441857e-12)
(-88.322 0 -4.35691845535e-12)
(-88.3220000001 0 8.13335732379e-13)
(-88.322 0 -1.46584014938e-14)
(-88.322 0 9.21129741944e-12)
(-88.3220000001 0 2.33991273683e-11)
(-88.322 0 -2.7931223051e-11)
(-88.322 0 2.77329677074e-12)
(-88.322 0 2.12650062695e-11)
(-88.322 0 2.16804653375e-11)
(-88.322 0 8.9531482555e-12)
(-88.322 0 -2.44559526399e-11)
(-88.322 0 3.88186162753e-11)
(-88.322 0 1.25296315777e-11)
(-88.322 0 8.51636464135e-12)
(-88.322 0 -7.45338896325e-12)
(-88.322 0 -2.5325123687e-12)
(-88.322 0 3.21260054697e-12)
(-88.322 0 -2.4181295449e-13)
(-88.322 0 -3.56057580962e-12)
(-88.322 0 2.89418344099e-14)
(-88.322 0 -9.25378601701e-13)
(-88.322 0 6.16090912607e-12)
(-88.322 0 3.72044095753e-12)
(-88.322 0 6.66594672884e-13)
(-88.322 0 2.00019483743e-12)
(-88.322 0 -1.20699233947e-11)
(-88.322 0 -1.53322267089e-11)
(-88.322 0 -1.78797231419e-12)
(-88.322 0 2.91382953618e-13)
(-88.322 0 2.43839572615e-13)
(-88.322 0 2.8734098054e-12)
(-88.322 0 1.08083276416e-12)
(-88.322 0 -3.23867652995e-13)
(-88.322 0 2.55063421898e-12)
(-88.322 0 1.18353256449e-13)
(-88.322 0 -6.80446397937e-13)
(-88.322 0 1.52165862113e-12)
(-88.322 0 -6.80061690527e-12)
(-88.322 0 1.62043447173e-13)
(-88.322 0 3.72843818573e-13)
(-88.322 0 1.37511167962e-12)
(-88.322 0 3.54680557084e-12)
(-88.322 0 6.95161152927e-12)
(-88.322 0 1.05492394096e-11)
(-88.322 0 7.55786665382e-13)
(-88.322 0 8.13206191791e-12)
(-88.322 0 -8.07550056614e-12)
(-88.322 0 -1.16708348808e-11)
(-88.322 0 -4.20049537784e-11)
(-88.322 0 -1.45844161944e-11)
(-88.322 0 9.91194544946e-12)
(-88.322 0 -2.61401661145e-11)
(-88.322 0 -2.87194158465e-11)
(-88.322 0 1.34504156147e-11)
(-88.322 0 5.63493228051e-12)
(-88.322 0 1.82419813669e-12)
(-88.322 0 6.25029344875e-12)
(-88.322 0 1.71371366877e-13)
(-88.322 0 2.78227813856e-13)
(-88.322 0 2.51906148835e-13)
(-88.322 0 4.66953959157e-12)
(-88.322 0 2.06259185764e-11)
(-88.322 0 -6.12711170734e-13)
(-88.322 0 -3.27462731277e-12)
(-88.322 0 7.07647098454e-13)
(-88.322 0 -2.2796062723e-12)
(-88.322 0 2.05421276369e-11)
(-88.322 0 -1.06348968175e-11)
(-88.322 0 -5.04759363853e-13)
(-88.322 0 -5.15969842236e-13)
(-88.322 0 -1.37957720252e-11)
(-88.322 0 7.37932148408e-12)
(-88.322 0 -2.78356256355e-11)
(-88.322 0 1.54561821935e-11)
(-88.322 0 1.80855804206e-12)
(-88.322 0 1.10439747389e-11)
(-88.322 0 6.54494225165e-12)
(-88.322 0 3.45083877308e-12)
(-88.322 0 -1.31500130599e-12)
(-88.322 0 -1.78242277923e-14)
(-88.322 0 3.19632248823e-13)
(-88.322 0 1.50305967156e-11)
(-88.322 0 -6.95512983544e-12)
(-88.322 0 1.50363748073e-11)
(-88.322 0 2.42324696738e-11)
(-88.322 0 -5.7400419479e-12)
(-88.322 0 3.30429556058e-13)
(-88.322 0 3.41456492733e-12)
(-88.322 0 -1.51432466858e-12)
(-88.322 0 7.45560646534e-12)
(-88.322 0 3.98315354081e-12)
(-88.322 0 -2.73604286625e-12)
(-88.322 0 2.21926491733e-11)
(-88.322 0 2.37764300667e-11)
(-88.322 0 1.13000620932e-11)
(-88.322 0 3.80236345256e-12)
(-88.322 0 -1.64065031216e-12)
(-88.322 0 1.06458283983e-12)
(-88.322 0 1.97686273995e-11)
(-88.322 0 3.06842572161e-11)
(-88.322 0 -5.06098269846e-12)
(-88.322 0 -1.18461611547e-11)
(-88.322 0 -1.53012273932e-11)
(-88.322 0 1.7225571686e-11)
(-88.322 0 9.87609054944e-12)
(-88.322 0 -1.49757585255e-12)
(-88.322 0 2.06200326518e-11)
(-88.322 0 1.27398186379e-11)
(-88.322 0 1.73355595205e-12)
(-88.322 0 -5.57034867126e-12)
(-88.322 0 4.11142177568e-13)
(-88.322 0 1.28047111611e-13)
(-88.322 0 1.61019034901e-13)
(-88.322 0 -6.20034114164e-13)
(-88.322 0 2.57833399938e-12)
(-88.322 0 9.31415548755e-13)
(-88.322 0 -4.32937684864e-14)
(-88.322 0 6.127229232e-12)
(-88.322 0 1.89006633089e-12)
(-88.322 0 -3.0741067261e-12)
(-88.322 0 1.85089571124e-13)
(-88.322 0 2.07644330982e-13)
(-88.322 0 -1.97897500334e-13)
(-88.322 0 -4.14114920925e-14)
(-88.322 0 -7.8652411469e-13)
(-88.322 0 5.94598795821e-12)
(-88.322 0 -2.94759270434e-12)
(-88.322 0 -1.28930663667e-13)
(-88.322 0 3.46709590794e-13)
(-88.322 0 4.18779699403e-12)
(-88.322 0 1.1225344076e-11)
(-88.322 0 -1.06166211219e-11)
(-88.322 0 -1.41706032243e-11)
(-88.322 0 1.30153154385e-11)
(-88.322 0 3.98674665251e-12)
(-88.322 0 1.84777100446e-12)
(-88.322 0 8.39782675483e-12)
(-88.3219999999 0 -6.05247865792e-12)
(-88.322 0 1.19897025137e-11)
(-88.322 0 -1.61569289291e-11)
(-88.322 0 8.72224232302e-12)
(-88.322 0 -5.75210741417e-12)
(-88.322 0 5.73813167028e-12)
(-88.322 0 1.1606639978e-12)
(-88.322 0 -4.23132204803e-12)
(-88.322 0 3.14761891587e-13)
(-88.322 0 3.6910175449e-13)
(-88.3219999999 0 -1.10638407341e-13)
(-88.322 0 -3.63009752451e-12)
(-88.322 0 -4.46059731415e-12)
(-88.322 0 -2.84617711258e-13)
(-88.322 0 -2.59945936209e-12)
(-88.322 0 7.96927888403e-12)
(-88.322 0 -1.14128665675e-11)
(-88.322 0 -2.35659623211e-11)
(-88.322 0 -4.29199836238e-12)
(-88.322 0 -1.61918686612e-12)
(-88.322 0 1.50194440115e-15)
(-88.322 0 -2.40038849709e-12)
(-88.322 0 -2.38424715839e-12)
(-88.322 0 6.87403782289e-13)
(-88.322 0 -3.0708524505e-13)
(-88.322 0 2.09307742404e-14)
(-88.322 0 -2.17840672266e-12)
(-88.322 0 -7.43114232972e-13)
(-88.322 0 7.11128961631e-12)
(-88.3219999999 0 -3.64643956785e-12)
(-88.322 0 -1.2523687032e-13)
(-88.322 0 -4.14246286955e-12)
(-88.322 0 -2.6989577682e-12)
(-88.322 0 -1.07964083456e-11)
(-88.322 0 3.67263044082e-12)
(-88.322 0 -1.49568650963e-11)
(-88.322 0 -9.30376372977e-12)
(-88.322 0 1.7662865593e-11)
(-88.322 0 8.22783557342e-12)
(-88.322 0 -8.05759240561e-12)
(-88.322 0 2.00583357444e-12)
(-88.322 0 -1.01148213281e-11)
(-88.322 0 3.47789628267e-11)
(-88.322 0 5.38091896823e-12)
(-88.322 0 -1.07799034238e-12)
(-88.322 0 4.32633833288e-12)
(-88.322 0 5.19299487931e-13)
(-88.322 0 1.89056616354e-14)
(-88.322 0 2.06778261776e-12)
(-88.322 0 7.66716919443e-12)
(-88.322 0 -1.14723447702e-13)
(-88.322 0 -9.83358623801e-15)
(-88.322 0 -2.21757451946e-14)
(-88.322 0 4.22019936028e-13)
(-88.322 0 8.14428928097e-14)
(-88.322 0 2.06348990974e-12)
(-88.322 0 2.36938833454e-13)
(-88.322 0 -1.60251407885e-13)
(-88.322 0 -3.12740486325e-12)
(-88.322 0 1.90639943521e-12)
(-88.322 0 8.82859329165e-12)
(-88.322 0 1.06922803714e-11)
(-88.322 0 -1.60589989926e-12)
(-88.322 0 2.9295259655e-11)
(-88.322 0 -8.75710310935e-12)
(-88.322 0 -6.14020690859e-14)
(-88.322 0 1.94355623366e-12)
(-88.322 0 3.94189260072e-12)
(-88.322 0 -5.10996793625e-12)
(-88.322 0 1.01870340487e-11)
(-88.322 0 8.30850481714e-13)
(-88.322 0 -3.87606947803e-13)
(-88.322 0 -1.16900052317e-11)
(-88.322 0 1.2253637391e-11)
(-88.322 0 -1.44852845706e-11)
(-88.322 0 -2.42325740252e-11)
(-88.322 0 5.78019237879e-12)
(-88.322 0 -3.55992909468e-13)
(-88.322 0 -6.68065246012e-12)
(-88.322 0 1.57006231272e-12)
(-88.3220000001 0 -3.09699533502e-12)
(-88.322 0 6.61597033341e-12)
(-88.3219999999 0 -4.51770460512e-12)
(-88.322 0 -2.17614569507e-11)
(-88.322 0 -1.86710644501e-11)
(-88.322 0 -8.58310385729e-12)
(-88.322 0 -6.89628188105e-13)
(-88.322 0 1.31877568537e-12)
(-88.322 0 -6.49723062879e-13)
(-88.322 0 -1.40667369283e-11)
(-88.322 0 -6.98998723435e-12)
(-88.322 0 2.26354726672e-12)
(-88.322 0 1.08616092181e-11)
(-88.322 0 1.13859209585e-11)
(-88.322 0 -1.75310984355e-11)
(-88.322 0 -1.3742617383e-11)
(-88.322 0 2.2109486318e-12)
(-88.322 0 -2.07444161746e-11)
(-88.322 0 -1.26803058083e-11)
(-88.322 0 -5.85591852983e-12)
(-88.322 0 8.19909387908e-12)
(-88.322 0 -6.22807282024e-14)
(-88.3220000001 0 -6.31810103501e-13)
(-88.322 0 -8.69697696847e-13)
(-88.322 0 2.10957886431e-13)
(-88.3219999999 0 7.14834291026e-12)
(-88.322 0 -7.29998895395e-13)
(-88.3220000001 0 2.96910620891e-12)
(-88.322 0 -5.88664440546e-12)
(-88.322 0 -2.22043303149e-12)
(-88.322 0 5.70099656869e-12)
(-88.322 0 9.49032767546e-14)
(-88.322 0 -9.55877049707e-13)
(-88.322 0 -7.50960909176e-12)
(-88.322 0 -1.46199392213e-12)
(-88.322 0 8.27419495703e-13)
(-88.322 0 -5.63884700892e-12)
(-88.322 0 2.50765820931e-12)
(-88.322 0 1.29739504293e-13)
(-88.322 0 -1.0145874372e-12)
(-88.322 0 -4.2559733386e-12)
(-88.322 0 -1.11522018678e-11)
(-88.322 0 1.04634747334e-11)
(-88.322 0 1.41059547836e-11)
(-88.322 0 -2.03303418086e-11)
(-88.322 0 -1.00471199751e-11)
(-88.322 0 -2.06693275172e-12)
(-88.322 0 -1.39393848024e-11)
(-88.322 0 5.13670423885e-12)
(-88.322 0 -1.22994453779e-11)
(-88.322 0 1.683726533e-11)
(-88.322 0 -8.65560697228e-12)
(-88.322 0 5.89292159421e-12)
(-88.322 0 2.03329337444e-13)
(-88.322 0 2.07603023276e-13)
(-88.322 0 4.11742221387e-12)
(-88.322 0 9.39576219976e-15)
(-88.322 0 1.03126803436e-13)
(-88.322 0 2.93433208408e-12)
(-88.322 0 3.17123798428e-12)
(-88.322 0 -1.74056283037e-12)
(-88.322 0 -8.40274942889e-14)
(-88.322 0 -2.3127077644e-12)
(-88.322 0 -1.02615757491e-11)
(-88.322 0 2.07452707454e-11)
(-88.322 0 3.96810991439e-11)
(-88.322 0 4.90311339961e-12)
(-88.322 0 1.40408334214e-12)
(-88.322 0 -2.91248774147e-13)
(-88.322 0 -7.04926623794e-13)
(-88.322 0 2.98199948229e-12)
(-88.322 0 -3.88793956237e-14)
(-88.322 0 1.68647598892e-13)
(-88.322 0 -1.42832729545e-13)
(-88.322 0 2.35326807312e-12)
(-88.322 0 9.79083041064e-13)
(-88.322 0 2.71831141613e-13)
(-88.322 0 2.86609533052e-12)
(-88.322 0 -1.49076403317e-13)
(-88.322 0 3.04296316277e-12)
(-88.322 0 2.51453269597e-12)
(-88.322 0 -1.52451496897e-12)
(-88.322 0 5.25796324301e-12)
(-88.322 0 3.04988253274e-12)
(-88.322 0 3.30927412707e-13)
(-88.322 0 -8.06437976029e-12)
(-88.322 0 1.54916657005e-11)
(-88.322 0 1.176960932e-11)
(-88.322 0 4.70288845944e-12)
(-88.322 0 6.66935710805e-12)
(-88.322 0 -5.1653974084e-11)
(-88.322 0 1.61444193752e-12)
(-88.322 0 8.63475523784e-12)
(-88.322 0 -1.36184400224e-12)
(-88.322 0 -1.88136837722e-12)
(-88.322 0 7.45050115288e-12)
(-88.322 0 -2.47948710705e-12)
(-88.322 0 -7.59414902742e-12)
(-88.322 0 -9.54024507333e-14)
(-88.322 0 1.43609512005e-12)
(-88.322 0 7.36140400815e-12)
(-88.322 0 3.41836598898e-13)
(-88.322 0 5.41013367814e-12)
(-88.322 0 -1.54382222807e-12)
(-88.322 0 -2.13782458391e-12)
(-88.322 0 7.49898463704e-12)
(-88.322 0 3.12255633605e-12)
(-88.3220000001 0 5.11927982071e-12)
(-88.3220000001 0 -6.26496314165e-12)
(-88.322 0 4.17420299519e-12)
(-88.322 0 -4.92439110212e-12)
(-88.322 0 -1.69380523672e-12)
(-88.322 0 -6.91932038331e-12)
(-88.322 0 7.93790826947e-12)
(-88.322 0 -3.65850426888e-11)
(-88.322 0 -2.02327697153e-11)
(-88.322 0 -3.08953145228e-12)
(-88.322 0 -5.64781227957e-12)
(-88.322 0 2.36097849976e-12)
(-88.322 0 -4.55452802498e-12)
(-88.322 0 -5.80293852788e-12)
(-88.322 0 3.39562463874e-12)
(-88.322 0 1.66987979498e-12)
(-88.322 0 -5.35353882855e-12)
(-88.322 0 -1.16802190693e-11)
(-88.322 0 -4.09561569746e-12)
(-88.322 0 -4.68268155804e-12)
(-88.322 0 2.37812552583e-12)
(-88.322 0 -4.24888177478e-12)
(-88.322 0 -3.75273389129e-12)
(-88.322 0 9.66829519598e-13)
(-88.322 0 -6.23800548852e-13)
(-88.322 0 -1.96250339119e-12)
(-88.322 0 -2.86728854922e-12)
(-88.322 0 -1.19745777774e-12)
(-88.322 0 1.01967788265e-12)
(-88.322 0 -7.75187351406e-12)
(-88.322 0 -3.46924324995e-12)
(-88.322 0 1.41836959791e-12)
(-88.322 0 5.52385021524e-12)
(-88.322 0 -1.39009639317e-11)
(-88.322 0 -2.2943157956e-11)
(-88.322 0 -1.17089860752e-11)
(-88.322 0 -3.86566257095e-13)
(-88.322 0 -7.76794381104e-12)
(-88.322 0 4.19976192613e-13)
(-88.322 0 -1.25938816202e-11)
(-88.322 0 -1.74665218834e-11)
(-88.322 0 -1.14213495141e-11)
(-88.322 0 1.3516000677e-12)
(-88.322 0 -2.2621325672e-11)
(-88.322 0 -1.78605773498e-11)
(-88.322 0 -3.63613045371e-11)
(-88.3220000001 0 9.87671148235e-12)
(-88.322 0 4.12465214439e-11)
(-88.3219999999 0 -2.08337235275e-11)
(-88.322 0 -2.37300465948e-11)
(-88.322 0 1.35540357582e-12)
(-88.322 0 3.04723479351e-12)
(-88.322 0 -1.87593784421e-11)
(-88.322 0 -3.17572099004e-11)
(-88.322 0 2.77557358747e-11)
(-88.322 0 -1.62066744154e-11)
(-88.322 0 2.55192200316e-12)
(-88.322 0 -2.70415063605e-11)
(-88.322 0 2.26369197542e-11)
(-88.322 0 1.40109601406e-12)
(-88.322 0 2.60244113856e-12)
(-88.322 0 2.83021107286e-12)
(-88.322 0 -1.43376377526e-11)
(-88.322 0 -3.39545312237e-11)
(-88.322 0 -3.19337978e-11)
(-88.322 0 1.24635707711e-11)
(-88.322 0 1.67052417637e-11)
(-88.322 0 3.8956738515e-11)
(-88.322 0 -6.83692280262e-12)
(-88.322 0 -1.57128556655e-11)
(-88.322 0 1.2140876765e-11)
(-88.322 0 -2.62506637558e-12)
(-88.322 0 -6.07009305386e-12)
(-88.322 0 -5.9745157139e-14)
(-88.322 0 -9.75965550166e-13)
(-88.322 0 -3.8042335907e-13)
(-88.322 0 -5.54535995602e-13)
(-88.322 0 -9.81294452361e-12)
(-88.322 0 1.35021254282e-12)
(-88.322 0 -9.08880059554e-12)
(-88.322 0 5.06930455442e-12)
(-88.322 0 1.11090985476e-12)
(-88.322 0 -5.68999639264e-12)
(-88.322 0 -1.66005832818e-11)
(-88.322 0 -1.99999861171e-11)
(-88.322 0 -2.31287216719e-11)
(-88.322 0 -2.72518064288e-11)
(-88.322 0 -1.0595592677e-11)
(-88.322 0 -6.32701653633e-13)
(-88.322 0 1.78114017028e-12)
(-88.322 0 -9.30377116328e-13)
(-88.322 0 -9.43500423752e-12)
(-88.322 0 -5.84202540298e-12)
(-88.322 0 8.04504662507e-12)
(-88.322 0 8.3635343023e-12)
(-88.322 0 2.46073962852e-11)
(-88.322 0 -8.96946075301e-12)
(-88.3220000001 0 -8.53595878043e-13)
(-88.322 0 7.98020265495e-13)
(-88.322 0 7.38789005713e-12)
(-88.322 0 1.25994243803e-11)
(-88.322 0 3.29954987922e-12)
(-88.322 0 4.11057755533e-12)
(-88.322 0 9.3604502279e-13)
(-88.322 0 -2.50768606143e-12)
(-88.322 0 -7.53140808057e-13)
(-88.322 0 1.62609494469e-12)
(-88.322 0 -2.34220033685e-11)
(-88.322 0 1.24723306393e-11)
(-88.3219999999 0 9.69827273407e-12)
(-88.3219999998 0 1.10582868708e-11)
(-88.3220000001 0 3.55644359003e-11)
(-88.3220000001 0 -1.26447506008e-11)
(-88.322 0 6.07687974988e-12)
(-88.3219999999 0 6.89756157306e-13)
(-88.322 0 -3.76239895338e-13)
(-88.3220000001 0 3.73254543251e-13)
(-88.3219999999 0 -4.55576443329e-12)
(-88.322 0 4.47234159348e-12)
(-88.322 0 -3.26935150017e-12)
(-88.322 0 1.10578515874e-12)
(-88.322 0 6.4977932228e-12)
(-88.3219999999 0 4.51720740714e-12)
(-88.322 0 2.860771059e-12)
(-88.322 0 -5.25851463972e-12)
(-88.322 0 -8.35868436368e-12)
(-88.322 0 6.05418610581e-12)
(-88.322 0 -2.23740748733e-12)
(-88.322 0 7.38211017762e-12)
(-88.322 0 1.50180351271e-11)
(-88.3219999999 0 9.35056460713e-12)
(-88.3220000001 0 1.07023881505e-11)
(-88.3220000001 0 -3.35844986815e-12)
(-88.322 0 5.33049778573e-13)
(-88.3219999999 0 -1.05276206127e-11)
(-88.322 0 1.90892961214e-11)
(-88.322 0 1.04863267394e-11)
(-88.322 0 1.76998866003e-12)
(-88.322 0 -3.46488497185e-12)
(-88.322 0 -2.19161954266e-12)
(-88.322 0 4.01514132449e-12)
(-88.322 0 -1.88414389745e-12)
(-88.322 0 -1.65191113136e-13)
(-88.322 0 -3.18006550677e-12)
(-88.322 0 1.63112733352e-12)
(-88.322 0 6.17479783046e-12)
(-88.322 0 3.70301004684e-12)
(-88.322 0 8.3366194624e-13)
(-88.322 0 -1.0540295868e-11)
(-88.322 0 5.72827405073e-13)
(-88.322 0 -6.07597248589e-12)
(-88.322 0 -1.55284048112e-12)
(-88.322 0 -3.63091389273e-12)
(-88.322 0 -4.27311650678e-13)
(-88.322 0 -2.62396706368e-13)
(-88.322 0 1.65989396303e-12)
(-88.322 0 -9.34897816541e-13)
(-88.322 0 7.67789828279e-12)
(-88.322 0 6.03027666022e-13)
(-88.322 0 -1.10699060979e-12)
(-88.3220000001 0 -6.29122797329e-12)
(-88.322 0 1.19188998835e-11)
(-88.322 0 2.25019795251e-11)
(-88.322 0 9.01097377361e-12)
(-88.322 0 5.29430696656e-13)
(-88.322 0 7.9041698483e-12)
(-88.322 0 1.91711506798e-12)
(-88.322 0 1.27809746621e-11)
(-88.322 0 1.74666169193e-11)
(-88.322 0 1.09133856509e-11)
(-88.322 0 -1.22584416936e-12)
(-88.322 0 2.54112139319e-11)
(-88.322 0 1.85755185045e-11)
(-88.322 0 3.72078797989e-11)
(-88.322 0 -9.58783823059e-12)
(-88.322 0 -3.85474973387e-11)
(-88.322 0 2.02799212848e-11)
(-88.322 0 2.3076077495e-11)
(-88.322 0 -1.24992712612e-12)
(-88.322 0 -3.92973769082e-12)
(-88.322 0 1.80992871452e-11)
(-88.322 0 3.12118350881e-11)
(-88.322 0 -2.80237367852e-11)
(-88.322 0 1.70331244503e-11)
(-88.322 0 -2.34415337268e-12)
(-88.322 0 2.65121783215e-11)
(-88.322 0 -2.26448192177e-11)
(-88.322 0 -1.39158686739e-12)
(-88.322 0 -2.74244546648e-12)
(-88.322 0 -3.91293768711e-12)
(-88.322 0 1.1151965313e-11)
(-88.322 0 3.21595433744e-11)
(-88.322 0 2.48820744593e-11)
(-88.322 0 -8.82184169306e-12)
(-88.322 0 -6.10933622076e-12)
(-88.322 0 -4.73564299505e-11)
(-88.322 0 1.94664644521e-11)
(-88.322 0 1.02277729669e-11)
(-88.322 0 5.04128268683e-13)
(-88.322 0 -1.36147326793e-11)
(-88.322 0 4.71066814e-12)
(-88.322 0 -3.68026802379e-12)
(-88.322 0 7.65347478318e-13)
(-88.322 0 7.24480788174e-12)
(-88.322 0 -3.38303086975e-12)
(-88.322 0 9.33902950099e-12)
(-88.322 0 -1.20087775463e-12)
(-88.322 0 7.71945035281e-12)
(-88.322 0 -6.93648726343e-12)
(-88.322 0 -7.27741989165e-12)
(-88.322 0 1.80757220874e-12)
(-88.322 0 1.19586201121e-11)
(-88.322 0 2.03136416397e-11)
(-88.322 0 1.239481546e-11)
(-88.322 0 8.5501000358e-12)
(-88.322 0 -3.23706176564e-12)
(-88.322 0 3.85979857051e-13)
(-88.322 0 -1.77219531132e-12)
(-88.322 0 1.14674104283e-12)
(-88.322 0 7.63800407258e-12)
(-88.322 0 6.01593347698e-12)
(-88.322 0 -1.04475141512e-11)
(-88.322 0 -8.47287438682e-12)
(-88.322 0 -2.38736325548e-11)
(-88.322 0 6.84544291675e-12)
(-88.322 0 1.79040768099e-13)
(-88.322 0 -9.28272681637e-13)
(-88.322 0 -7.40461892502e-12)
(-88.322 0 -1.33810427581e-11)
(-88.322 0 -6.79852846673e-12)
(-88.322 0 -4.21993946989e-12)
(-88.322 0 -3.67019996695e-13)
(-88.322 0 2.36453039785e-12)
(-88.322 0 7.0034777287e-13)
(-88.322 0 -5.8097383972e-12)
(-88.322 0 1.36761132948e-11)
(-88.322 0 -1.76775298284e-11)
(-88.322 0 -1.95983114021e-11)
(-88.322 0 -1.95282818565e-11)
(-88.322 0 1.13016597322e-11)
(-88.322 0 -6.73521589275e-12)
(-88.322 0 -2.93944897962e-11)
(-88.322 0 1.28192446044e-11)
(-88.322 0 7.51385550504e-12)
(-88.322 0 -3.51743814474e-12)
(-88.322 0 3.91723716997e-12)
(-88.322 0 -1.57811303393e-11)
(-88.322 0 -1.55657077392e-11)
(-88.322 0 -9.38043355958e-12)
(-88.322 0 -1.50916863893e-11)
(-88.322 0 -4.99112421757e-12)
(-88.322 0 -2.59449161652e-12)
(-88.322 0 5.65771117466e-12)
(-88.322 0 8.86611160309e-12)
(-88.322 0 -8.28708926545e-12)
(-88.322 0 1.75904101842e-12)
(-88.3220000001 0 -1.20704759206e-11)
(-88.322 0 1.40822834925e-11)
(-88.322 0 -8.63373167242e-12)
(-88.322 0 -2.54483199191e-11)
(-88.322 0 -1.66490453123e-11)
(-88.322 0 -9.55168307343e-12)
(-88.322 0 1.57652061719e-12)
(-88.322 0 4.90812602849e-13)
(-88.322 0 -1.08739466723e-12)
(-88.322 0 2.87421545984e-13)
(-88.322 0 7.60236667995e-14)
(-88.322 0 -5.33277281465e-12)
(-88.322 0 -1.00634650295e-12)
(-88.322 0 -1.05893187047e-12)
(-88.322 0 -3.12679465717e-12)
(-88.322 0 -1.3735856469e-12)
(-88.322 0 3.39347080417e-12)
(-88.322 0 9.62334977795e-14)
(-88.322 0 9.00018681682e-15)
(-88.322 0 1.95013752029e-12)
(-88.322 0 1.70185258933e-11)
(-88.322 0 -1.72831913242e-11)
(-88.322 0 -3.07367719183e-11)
(-88.322 0 -3.50965197162e-12)
(-88.322 0 2.50649133721e-12)
(-88.322 0 4.02544905544e-13)
(-88.322 0 5.19784077184e-13)
(-88.322 0 -2.83797202852e-12)
(-88.322 0 1.44525780893e-13)
(-88.322 0 -4.4780102527e-13)
(-88.322 0 -3.51594156375e-13)
(-88.322 0 -2.83458169155e-12)
(-88.322 0 -6.75904338158e-13)
(-88.322 0 2.44442561608e-12)
(-88.322 0 3.79727902919e-14)
(-88.322 0 -3.65355456133e-13)
(-88.322 0 -3.24933316516e-12)
(-88.322 0 -1.20379215909e-12)
(-88.322 0 -8.10388253529e-12)
(-88.322 0 -2.31354859733e-13)
(-88.322 0 4.21978440133e-15)
(-88.322 0 3.82939177103e-13)
(-88.322 0 -5.8725630886e-15)
(-88.322 0 -7.87659841348e-14)
(-88.322 0 -1.14943630003e-13)
(-88.322 0 -2.38872203434e-13)
(-88.3219999999 0 -6.55001660685e-12)
(-88.322 0 -2.20806057394e-13)
(-88.3220000001 0 5.4271926313e-14)
(-88.322 0 -1.11275618686e-13)
(-88.3219999999 0 3.02669743047e-14)
(-88.322 0 8.90798312564e-13)
(-88.322 0 1.86513228485e-14)
(-88.322 0 4.39467877913e-14)
(-88.322 0 8.01753390553e-14)
(-88.322 0 -1.05727194056e-12)
(-88.322 0 -2.94504461172e-13)
(-88.322 0 -1.21457732807e-13)
(-88.322 0 4.32110589808e-14)
(-88.322 0 -3.29404955596e-14)
(-88.322 0 1.33038380923e-13)
(-88.322 0 1.06018747416e-12)
(-88.322 0 2.08591406573e-12)
(-88.322 0 -9.09483697803e-14)
(-88.322 0 -1.38741111945e-12)
(-88.322 0 -1.2305318882e-12)
(-88.3220000001 0 -2.32931242689e-12)
(-88.322 0 4.03939487549e-14)
(-88.322 0 -5.54080858084e-13)
(-88.322 0 2.21787562347e-12)
(-88.322 0 1.38030277848e-11)
(-88.322 0 1.86913449338e-11)
(-88.322 0 1.06980258121e-11)
(-88.322 0 -1.36166744776e-13)
(-88.322 0 1.03124865958e-11)
(-88.322 0 -5.57731800568e-12)
(-88.322 0 2.20939079497e-12)
(-88.322 0 9.08073496027e-12)
(-88.322 0 -1.39139218483e-14)
(-88.322 0 1.11953639033e-12)
(-88.322 0 2.09476106589e-12)
(-88.322 0 6.31300983681e-12)
(-88.322 0 4.03530174296e-12)
(-88.322 0 1.39032090384e-11)
(-88.322 0 1.12375028438e-11)
(-88.3220000001 0 5.88091900695e-12)
(-88.322 0 1.40354046104e-11)
(-88.3219999999 0 2.49207111839e-11)
(-88.322 0 7.70526929526e-13)
(-88.322 0 -6.21511970245e-13)
(-88.322 0 -5.31888872092e-12)
(-88.322 0 -2.31566441751e-12)
(-88.322 0 -7.8653804075e-13)
(-88.322 0 2.23047964881e-12)
(-88.322 0 1.70937494829e-13)
(-88.322 0 -8.71219542341e-12)
(-88.322 0 4.24283861745e-13)
(-88.322 0 -6.75608418791e-12)
(-88.322 0 -2.04717703584e-12)
(-88.322 0 6.29295038227e-13)
(-88.322 0 4.48994761496e-12)
(-88.322 0 1.03591491597e-12)
(-88.322 0 4.53843806215e-13)
(-88.322 0 6.58577741187e-12)
(-88.322 0 -1.80899332553e-12)
(-88.322 0 3.56211115775e-13)
(-88.322 0 4.8418190693e-12)
(-88.322 0 -1.58750782696e-11)
(-88.322 0 1.13341718133e-11)
(-88.322 0 1.39501909545e-11)
(-88.322 0 1.05384518882e-11)
(-88.322 0 -2.10873434286e-11)
(-88.322 0 1.00448244334e-11)
(-88.322 0 2.31343731117e-11)
(-88.322 0 -1.28552425288e-11)
(-88.322 0 -6.56805593582e-12)
(-88.322 0 3.01379361846e-12)
(-88.322 0 -4.4710180532e-13)
(-88.322 0 1.87843437277e-11)
(-88.322 0 1.94599180747e-11)
(-88.322 0 7.1580240626e-12)
(-88.322 0 8.39264240258e-12)
(-88.322 0 4.34321587087e-12)
(-88.322 0 4.92590904267e-13)
(-88.322 0 5.75950324051e-13)
(-88.322 0 1.6634010719e-13)
(-88.322 0 2.22220634587e-12)
(-88.322 0 -1.85022707217e-12)
(-88.3220000001 0 6.25436042287e-12)
(-88.322 0 -1.51803713038e-11)