/*--------------------------------*- C++ -*----------------------------------*\
  =========                 |
  \\      /  F ield         | OpenFOAM: The Open Source CFD Toolbox
   \\    /   O peration     | Website:  https://openfoam.org
    \\  /    A nd           | Version:  6
     \\/     M anipulation  |
\*---------------------------------------------------------------------------*/
FoamFile
{
    version     2.0;
    format      ascii;
    class       volScalarField;
    location    "5.03e-05";
    object      p;
}
// * * * * * * * * * * * * * * * * * * * * * * * * * * * * * * * * * * * * * //

dimensions      [1 -1 -2 0 0 0 0];

internalField   nonuniform List<scalar> 
8192
(
6000000.00089
5999999.99938
6000000.00021
6000000.00136
6000000.00534
5999999.99811
6000000.00217
5999999.99912
6000000.00076
5999999.99983
6000000.00021
5999999.99981
6000000.00055
6000000.00141
6000000.00078
6000000.00072
6000000.00057
5999999.99766
5999999.99902
6000000.00059
5999999.99864
5999999.9974
6000000.0017
5999999.99984
5999999.99943
5999999.99984
5999999.99757
5999999.99892
5999999.99823
5999999.99872
6000000.00025
6000000.00082
5999999.99634
5999999.99398
6000000.00772
6000000.00744
5999999.99914
6000000.0042
5999999.99981
5999999.99653
6000000.00461
5999999.99717
6000000.00045
5999999.99985
6000000.00074
6000000.00049
6000000.00031
5999999.99951
5999999.99931
6000000.00171
5999999.99642
6000000.00106
6000000.00352
5999999.99531
5999999.9957
6000000.0012
5999999.99999
6000000.00368
6000000.0002
6000000.00648
5999999.99636
5999999.99705
5999999.997
6000000.003
6000000.00103
6000000.00248
6000000.00023
6000000.00436
5999999.99516
6000000.00349
5999999.99847
5999999.99603
6000000.00232
6000000.00267
6000000.00679
5999999.99674
5999999.9947
6000000.00634
6000000.00244
5999999.99512
5999999.99451
5999999.99196
6000000.00317
6000000.00581
6000000.0001
5999999.9993
6000000.00635
6000000.00464
5999999.99691
5999999.9971
5999999.99811
5999999.99823
5999999.99673
6000000.00503
5999999.99649
6000000.00267
6000000.00169
5999999.99945
6000000.00374
5999999.9982
5999999.99969
5999999.99988
5999999.99977
6000000.00042
5999999.9985
6000000.00025
6000000.00012
6000000
5999999.99998
5999999.99998
6000000.00016
6000000.00048
5999999.99939
6000000.00077
5999999.99953
6000000.00187
6000000.00014
5999999.99838
6000000.0007
5999999.99875
5999999.99899
5999999.99861
6000000.00037
5999999.99844
6000000.00016
5999999.99953
6000000.00031
6000000.00032
6000000.00643
6000000.00052
5999999.99597
6000000.0008
5999999.99814
5999999.99961
5999999.99999
5999999.99946
6000000.00103
6000000.00086
5999999.99853
6000000.00358
6000000.00072
6000000.00319
6000000.00432
5999999.99679
5999999.99718
5999999.99798
6000000.00213
6000000.00229
5999999.99988
5999999.99992
5999999.99874
6000000.00072
5999999.99454
6000000.00005
5999999.99664
5999999.99683
6000000.0018
6000000.00159
5999999.99802
5999999.99914
5999999.99977
5999999.99975
6000000.00006
6000000.00043
5999999.99959
6000000.00229
6000000.00019
6000000.00118
5999999.9973
6000000.00064
5999999.99692
6000000.00359
6000000.00192
6000000.00272
6000000.00192
6000000.00414
6000000.00236
6000000
5999999.99399
6000000.00326
6000000.00199
5999999.99768
6000000.0006
5999999.99778
6000000.00319
6000000.00039
6000000.0021
5999999.99233
5999999.99244
6000000.00186
6000000.00624
6000000.00418
5999999.99925
5999999.99898
6000000.00152
6000000.00067
5999999.99984
6000000.00001
5999999.99997
6000000.00001
6000000.00015
6000000.00016
5999999.99999
5999999.99713
5999999.99749
6000000.00331
5999999.99925
5999999.99997
6000000.00005
5999999.99998
6000000.0001
6000000.00028
6000000.00046
5999999.99955
5999999.99994
6000000.00021
5999999.9995
6000000.00075
5999999.99998
5999999.99455
6000000.00147
6000000.00203
5999999.99713
6000000.00094
6000000.00682
5999999.99413
5999999.99673
6000000.00524
6000000.0085
5999999.9919
5999999.99408
6000000.00122
6000000.00422
5999999.99513
6000000.00347
6000000.00047
6000000.00478
5999999.99827
6000000.0071
6000000.00357
5999999.99059
6000000.00061
6000000.00711
5999999.99878
6000000.00552
5999999.99309
5999999.99796
6000000.00118
6000000.00383
6000000.00413
6000000.00044
6000000.00244
6000000.0008
5999999.999
5999999.9993
5999999.9993
6000000
5999999.9987
6000000.00072
5999999.99763
6000000.00181
5999999.99802
5999999.99947
5999999.99911
5999999.99958
5999999.9998
6000000
6000000.0016
6000000.00156
5999999.99604
6000000.00044
6000000.0023
5999999.99983
6000000.00318
5999999.99552
5999999.99657
6000000.00511
6000000.00039
5999999.9963
5999999.99439
6000000.00007
5999999.99338
5999999.9986
5999999.99456
6000000.00188
6000000.00631
5999999.99577
6000000.00066
5999999.99913
6000000.00151
5999999.99918
5999999.99933
6000000.00161
5999999.99767
6000000.00255
6000000.00034
6000000.00008
6000000.0002
6000000.00001
6000000.00001
6000000.00005
6000000.00034
5999999.99887
6000000.00155
5999999.99751
5999999.99955
5999999.99772
6000000.00235
6000000.00639
5999999.99879
5999999.99336
6000000.00362
6000000.00773
5999999.99749
6000000.00352
5999999.99818
6000000.00785
5999999.99635
5999999.99601
5999999.996
6000000.00146
6000000.00298
5999999.99427
6000000.00218
6000000.00139
5999999.99963
6000000.00126
5999999.99778
6000000.0006
6000000.00072
5999999.99717
6000000.00254
6000000.0022
6000000.00091
6000000.00022
5999999.99977
5999999.99682
5999999.99703
6000000.00095
6000000.00125
5999999.99975
5999999.99806
5999999.99714
6000000.00059
5999999.99653
6000000.00083
5999999.9964
5999999.9943
5999999.99663
6000000.00385
5999999.99697
5999999.99642
6000000.00724
5999999.99872
6000000.00318
5999999.99971
5999999.99584
6000000.00389
5999999.99464
6000000.0042
6000000.00001
5999999.99917
6000000.00165
5999999.9997
6000000.00139
6000000.00009
6000000.00121
6000000.00174
5999999.99777
6000000.00341
6000000.00176
5999999.99668
6000000.00198
6000000.00049
5999999.99997
6000000.0039
5999999.99735
6000000.00447
6000000.00269
5999999.99415
5999999.99159
5999999.99509
5999999.99855
6000000.00158
6000000.0028
6000000.00363
5999999.99317
5999999.99126
6000000.00164
5999999.99574
5999999.99886
6000000.00497
5999999.99804
5999999.99866
6000000.00272
5999999.99604
5999999.99794
6000000.0065
5999999.99606
5999999.99883
5999999.99451
6000000.00265
6000000.00527
5999999.99935
5999999.99797
5999999.99181
6000000.00504
5999999.99877
6000000.00522
5999999.99916
5999999.99618
6000000.00375
5999999.99482
5999999.99411
6000000.00051
6000000.00278
5999999.99824
5999999.99806
5999999.99781
6000000.00185
6000000.00188
5999999.99696
6000000.00227
5999999.99833
5999999.99944
6000000.00126
5999999.99885
5999999.9995
5999999.99985
6000000.00089
6000000.00144
5999999.99727
6000000.00199
6000000.00064
5999999.99958
5999999.99764
6000000.00207
6000000.00041
5999999.999
6000000.0022
6000000.00166
5999999.99746
5999999.9995
6000000.00043
5999999.99909
5999999.99611
5999999.9967
5999999.9986
5999999.99486
6000000.00305
6000000.00213
6000000.00003
6000000.0006
5999999.99878
6000000.00368
5999999.99801
6000000.00316
6000000.00195
5999999.99561
6000000.00447
6000000.00128
6000000.00052
6000000.00076
5999999.99804
6000000.00215
6000000.00053
5999999.99888
6000000.00157
6000000.00011
5999999.99898
5999999.99683
6000000.00516
5999999.99624
5999999.99963
6000000.00212
5999999.99645
6000000.00432
5999999.99539
6000000.00304
5999999.99892
5999999.99888
5999999.9971
6000000.00262
6000000.00626
5999999.9981
5999999.998
6000000.00143
6000000.0029
5999999.99764
5999999.99691
6000000.00652
5999999.99774
5999999.99963
5999999.99945
6000000.00107
6000000.00339
5999999.99765
6000000.00495
5999999.99832
5999999.99865
6000000.00225
6000000.00029
5999999.99962
6000000.00367
6000000.00017
6000000.00331
5999999.9985
5999999.9993
5999999.99957
5999999.9976
5999999.99357
6000000.00303
6000000.00162
5999999.99834
5999999.99956
5999999.99849
6000000.00023
5999999.99784
6000000.0014
5999999.9984
6000000.00075
5999999.99925
6000000.00004
6000000.00042
5999999.99818
6000000.00096
6000000.00038
5999999.99984
5999999.99989
5999999.99973
6000000.00019
6000000.00045
5999999.99969
6000000.00008
5999999.99982
6000000.00002
5999999.99981
5999999.99992
5999999.9997
5999999.99925
5999999.99996
6000000
5999999.99981
5999999.99998
6000000.00013
5999999.99994
5999999.99856
6000000.00254
5999999.9983
5999999.99928
5999999.99891
5999999.99933
6000000.00027
5999999.99991
6000000
5999999.99957
6000000.00181
6000000.00057
6000000.0001
6000000.00032
5999999.99925
5999999.9975
6000000.00276
6000000.00307
5999999.99829
5999999.99316
5999999.99318
6000000.00119
6000000.00701
6000000.00299
6000000.00385
5999999.99663
6000000.00462
5999999.99315
6000000.00119
5999999.99591
6000000.00036
5999999.99995
6000000.00359
5999999.99885
6000000.00212
5999999.99763
6000000.00194
5999999.99956
6000000
6000000.00027
6000000.0004
5999999.99997
5999999.9994
6000000.00344
5999999.99944
5999999.99999
6000000.00002
5999999.99992
5999999.99989
6000000
6000000.00075
5999999.99872
5999999.99867
5999999.99872
5999999.99937
5999999.99995
5999999.99853
5999999.99657
6000000.00196
6000000.00078
6000000.00092
6000000.00247
5999999.99721
5999999.99733
6000000.00756
6000000.00343
6000000.00146
6000000.00288
5999999.99704
5999999.99861
6000000.00115
5999999.99885
6000000.00102
6000000.00028
6000000.00059
6000000.00071
6000000.00273
5999999.9995
5999999.99732
6000000.00079
5999999.99972
5999999.99958
6000000.00456
5999999.99888
5999999.9978
6000000.0031
6000000.00166
6000000.00049
6000000.00114
5999999.99614
5999999.9973
6000000.00481
6000000.00605
6000000.00289
5999999.9962
5999999.99747
6000000.00354
6000000.00002
5999999.99772
5999999.99638
6000000.00474
6000000.00359
5999999.99967
6000000.00222
5999999.99748
6000000.00154
5999999.99947
6000000.00064
6000000.00087
6000000.00049
6000000.00126
5999999.99947
5999999.99909
6000000.00136
6000000.00119
5999999.99402
5999999.99411
6000000.00355
6000000.0005
5999999.99912
5999999.99831
6000000.00335
5999999.997
6000000.00083
6000000.00141
6000000.00312
5999999.99334
6000000.00286
6000000.00164
6000000.00498
5999999.99558
5999999.9978
6000000.00161
6000000.00036
5999999.99478
5999999.99746
6000000.00558
6000000.00611
5999999.99964
6000000.00177
6000000.00125
6000000.00422
5999999.99718
6000000.00158
6000000.00187
5999999.99498
6000000.00333
6000000.0036
6000000.00559
6000000.00871
5999999.99534
5999999.99801
6000000.00387
6000000.00667
5999999.99448
5999999.99491
6000000.00277
5999999.99814
6000000.00001
6000000.00068
5999999.99576
6000000.00167
5999999.9967
6000000.00052
5999999.99557
5999999.99424
6000000.00431
6000000.00319
5999999.99835
6000000.00319
6000000.00124
5999999.99991
5999999.99991
5999999.99821
5999999.99686
6000000.00387
6000000.00758
5999999.99646
5999999.9985
5999999.99228
6000000.00473
6000000.0061
5999999.99552
5999999.99727
5999999.99578
5999999.99708
5999999.99639
6000000.0013
5999999.99899
6000000.00221
5999999.99865
5999999.99986
6000000.00368
5999999.99378
5999999.99464
5999999.99607
6000000.0071
6000000.00038
5999999.99825
6000000.00107
6000000.00021
6000000.00284
5999999.99893
6000000.00158
6000000.00604
5999999.99627
5999999.99419
5999999.99203
6000000.00321
6000000.00289
5999999.9921
5999999.99618
5999999.99684
6000000.00137
5999999.99871
5999999.99258
6000000.00389
6000000.00502
5999999.9999
6000000.00091
5999999.99987
6000000.00075
6000000.00103
6000000.00065
6000000.00009
5999999.99999
5999999.99991
5999999.99988
6000000.00015
6000000.00047
5999999.99803
6000000.00242
6000000.00719
5999999.9998
6000000.00112
6000000.00319
5999999.99924
6000000.0039
6000000.00133
5999999.99996
5999999.99987
5999999.99985
6000000.0015
5999999.99709
5999999.99698
6000000.0011
5999999.99569
6000000.00119
5999999.99846
5999999.99936
5999999.99901
5999999.99978
5999999.99969
6000000.00006
6000000.00053
5999999.99789
6000000.00373
5999999.99849
5999999.99888
5999999.99985
5999999.99797
6000000.00119
6000000.00132
6000000.00015
6000000.00052
5999999.9988
6000000.00408
5999999.99979
6000000
6000000.0005
5999999.99967
6000000.00043
5999999.99736
6000000.00652
6000000.00372
5999999.99474
5999999.99836
6000000.00227
5999999.99806
6000000.00387
5999999.99867
5999999.99977
6000000.00008
5999999.99933
6000000.00038
5999999.99896
6000000.00068
5999999.99672
6000000.00197
6000000.00111
6000000.00116
5999999.99954
6000000.00006
5999999.99672
6000000.00691
6000000.00377
5999999.99386
6000000.00154
6000000.0032
6000000.00482
5999999.99563
5999999.99544
6000000.0047
5999999.9985
5999999.99928
6000000.00046
5999999.99997
5999999.99992
5999999.99996
6000000.00002
5999999.99989
5999999.99993
5999999.99986
6000000.00033
5999999.99829
6000000.00305
5999999.99704
5999999.99969
6000000.00136
5999999.99248
6000000.0051
6000000.00489
6000000.00165
5999999.99937
6000000.00297
6000000.00568
5999999.9962
5999999.99486
6000000.00274
5999999.99903
6000000.0033
6000000.00538
6000000.00057
6000000.00595
6000000.00011
5999999.99975
6000000.00082
6000000.00069
5999999.99983
6000000.00011
6000000.00374
5999999.99763
6000000.00072
6000000.00173
6000000.00322
6000000.00314
5999999.99451
6000000.00231
6000000.0007
6000000.0012
5999999.99907
6000000.00485
6000000.00386
5999999.99713
6000000.00325
6000000.00033
5999999.9992
6000000.00062
5999999.99953
6000000.00242
5999999.9933
6000000.00254
6000000.00142
6000000.00034
5999999.99861
6000000.00016
6000000.00155
5999999.99966
5999999.99999
6000000.00002
6000000
6000000.00003
5999999.99989
6000000.00001
5999999.9998
5999999.99989
6000000.00039
5999999.99882
6000000.00205
5999999.9995
5999999.9998
5999999.99962
6000000.0004
5999999.99806
6000000.00103
6000000.00062
6000000.00075
5999999.99712
5999999.99783
6000000.00113
6000000.00219
5999999.99818
6000000.00133
5999999.99801
6000000.00313
6000000.00292
6000000.00051
6000000.00033
5999999.99967
5999999.99901
6000000.00226
5999999.99523
6000000.0066
5999999.99684
5999999.99435
6000000.00355
6000000.00413
6000000.00524
5999999.99995
6000000.00026
5999999.99406
5999999.9955
5999999.99502
6000000.00202
5999999.99775
6000000.00515
5999999.99908
5999999.99717
6000000.00077
5999999.99702
6000000.00226
5999999.99809
6000000.00546
5999999.99273
5999999.99488
6000000.00396
5999999.99448
5999999.99664
5999999.99803
6000000.00224
6000000.00193
6000000.00121
6000000.00003
6000000.00105
6000000.00091
6000000.00276
5999999.99645
6000000.00225
6000000.00151
5999999.9997
5999999.99818
6000000.00004
6000000.00016
5999999.99848
5999999.9988
6000000.00163
5999999.99987
6000000.00174
6000000.00239
5999999.99697
5999999.99903
6000000.00506
5999999.99914
5999999.99968
5999999.99978
6000000
6000000.00001
6000000.00014
5999999.99996
5999999.99978
6000000.00058
6000000.00001
5999999.99663
6000000.00119
5999999.99936
5999999.99988
5999999.99996
6000000.00048
5999999.99784
6000000.00393
6000000.00203
5999999.99514
6000000.00667
5999999.9939
5999999.99311
6000000.00264
6000000.00535
5999999.99158
5999999.99731
5999999.99685
5999999.99918
6000000.00124
5999999.99792
6000000.00142
5999999.99579
5999999.99679
6000000.00082
5999999.99703
6000000.00391
5999999.99778
6000000.00165
6000000.00303
5999999.9954
5999999.99461
5999999.9937
5999999.99929
6000000.00491
6000000.00237
5999999.99605
5999999.99306
6000000.00408
6000000.00286
5999999.9933
5999999.99923
6000000.00579
6000000.00459
5999999.99797
5999999.9975
6000000.00507
5999999.99962
6000000.00002
6000000.00001
5999999.99971
6000000.00109
6000000.00156
5999999.99843
5999999.99789
5999999.99837
6000000.00068
6000000.00196
5999999.99939
6000000.00076
5999999.99816
5999999.99761
6000000.0016
6000000.00069
6000000.00036
6000000.00002
6000000.00006
5999999.99991
5999999.99987
6000000.00053
5999999.99886
5999999.99876
6000000.00019
6000000.00247
5999999.9979
5999999.99986
6000000.00021
5999999.99402
6000000.00035
6000000.00078
6000000.00508
6000000.00188
5999999.99916
6000000.00163
6000000.00045
5999999.99784
6000000.00313
5999999.99611
6000000.00337
6000000.00051
6000000.00524
5999999.99899
5999999.99974
6000000.00594
6000000.00234
6000000.0041
6000000.00219
5999999.9962
5999999.99862
6000000.00346
5999999.99934
5999999.99771
5999999.99681
6000000.00298
5999999.99784
5999999.99872
5999999.99668
6000000.00026
6000000.00237
5999999.99817
5999999.99824
5999999.9988
5999999.99976
5999999.99987
6000000.00176
6000000.00075
6000000.00088
5999999.99889
6000000.002
6000000.0016
5999999.99852
5999999.99974
6000000.00031
6000000.00002
6000000.00015
5999999.99987
6000000.00127
6000000.00119
5999999.99783
6000000.00324
6000000.00219
5999999.99607
6000000.00553
5999999.99458
5999999.99833
6000000.00262
6000000.00657
6000000.003
6000000.00294
6000000.00186
5999999.99249
5999999.99707
5999999.9987
5999999.99895
6000000.00438
6000000.00473
5999999.99338
5999999.99704
5999999.99476
6000000.00589
6000000.00266
6000000.00311
5999999.99859
6000000.00107
6000000.00074
6000000.00213
5999999.99951
5999999.99908
5999999.99981
6000000.00003
5999999.99986
6000000.00093
5999999.99917
6000000.00134
5999999.99989
6000000.00019
5999999.99857
5999999.99556
6000000.00348
6000000.00128
5999999.99601
5999999.99444
6000000.00573
5999999.99788
5999999.99558
6000000.00168
6000000.00635
5999999.99524
6000000.00427
5999999.99873
5999999.99742
6000000.0062
5999999.99905
6000000.00015
5999999.99995
6000000
6000000.00007
6000000.00001
6000000.00007
6000000.00002
6000000.00007
6000000.0002
6000000.00025
6000000.00003
6000000.0002
5999999.99918
6000000.00127
6000000.00155
5999999.99437
6000000.00326
6000000.0051
5999999.99866
6000000.00181
6000000.00276
6000000.00243
5999999.99894
6000000.00023
5999999.9939
6000000.00137
5999999.99957
6000000.00125
6000000.00334
5999999.99899
5999999.99879
5999999.9994
5999999.99873
6000000.00033
5999999.99832
6000000.00125
6000000.00174
5999999.99817
5999999.99944
5999999.99866
6000000.00163
5999999.9996
5999999.99999
5999999.99958
5999999.99921
6000000.00097
5999999.999
5999999.99808
6000000.00382
5999999.99601
6000000.00147
5999999.99875
5999999.99928
5999999.99993
5999999.99918
6000000.00201
5999999.99547
6000000.00197
5999999.99941
5999999.9991
6000000.00004
5999999.99939
5999999.99987
5999999.99943
6000000.0013
5999999.9983
5999999.9995
5999999.99995
5999999.99993
5999999.99992
5999999.99998
6000000.00009
5999999.99993
5999999.99964
6000000
5999999.99985
5999999.99986
6000000.00004
5999999.9992
6000000.00223
5999999.99943
6000000.00019
6000000.00014
6000000.00155
5999999.9979
6000000.00151
5999999.99589
6000000.00275
6000000.00179
6000000.00201
6000000.00237
5999999.99692
5999999.99896
5999999.9979
6000000.00276
5999999.99883
5999999.9981
6000000.00193
5999999.99805
5999999.99903
5999999.99955
5999999.99995
6000000.00463
6000000.00169
6000000.00333
5999999.99911
6000000.00034
6000000.00264
5999999.99502
6000000.00065
5999999.99645
6000000.00572
6000000.00197
5999999.99393
5999999.99553
5999999.99492
6000000.00607
6000000.00191
6000000.00591
5999999.99703
5999999.99813
6000000.00075
5999999.99488
5999999.99372
5999999.99691
5999999.99817
6000000.00257
5999999.99452
5999999.99678
5999999.99353
6000000.00077
5999999.99505
5999999.99817
5999999.99651
5999999.99641
5999999.99464
5999999.99479
6000000.00439
6000000.00158
6000000.00149
5999999.99337
6000000.00262
5999999.99947
6000000.00031
6000000.00146
5999999.9984
6000000.00042
5999999.99564
6000000.0034
5999999.99494
5999999.99499
6000000.00277
5999999.9947
5999999.9952
6000000.00596
5999999.99535
5999999.99368
6000000.00116
6000000.00207
5999999.99966
6000000.0016
6000000.00061
6000000.00046
5999999.99997
6000000.00072
5999999.99952
6000000.00071
5999999.99875
6000000.00044
6000000.0003
5999999.99992
5999999.99992
6000000.00023
6000000.00193
6000000.00003
5999999.99954
6000000.00134
6000000.00021
5999999.99928
5999999.99955
5999999.99946
5999999.9991
6000000.00029
6000000.0001
6000000.00041
5999999.99944
5999999.99889
6000000.00071
6000000.00238
5999999.99797
6000000.00092
6000000.00337
6000000.00282
5999999.99627
5999999.99727
6000000.00368
5999999.99923
6000000.00166
6000000.00054
5999999.99643
6000000.00318
6000000.0028
5999999.99992
5999999.99875
6000000.00006
5999999.99837
6000000.00396
6000000.00025
6000000.00117
5999999.99865
5999999.99729
6000000.00694
6000000.00615
5999999.99327
5999999.99748
6000000.00178
6000000.0014
5999999.99886
6000000.00128
5999999.99996
6000000.00349
5999999.99917
6000000.00276
5999999.99966
5999999.99948
5999999.99989
6000000.00004
5999999.99996
5999999.99998
5999999.99998
6000000.00001
6000000.00004
6000000.00014
6000000
6000000
6000000.00001
5999999.99998
6000000.00019
6000000.00002
6000000.00001
5999999.99993
5999999.99996
6000000.00022
6000000.00032
5999999.99995
6000000.00014
5999999.99999
6000000.00001
5999999.99955
6000000.0003
5999999.99989
6000000.00038
5999999.99927
5999999.99917
5999999.99927
6000000.00074
5999999.99956
6000000.00316
5999999.99936
5999999.99967
5999999.99956
6000000.00018
6000000.00007
6000000.00013
5999999.9999
6000000.00001
6000000
6000000.00015
5999999.99892
6000000.00062
5999999.99882
6000000.00392
5999999.99936
5999999.99873
6000000.00151
5999999.9989
6000000.00415
6000000.0036
5999999.99847
5999999.99983
6000000.00622
6000000.00083
6000000.00069
6000000.00108
5999999.99968
6000000
6000000.00007
6000000.00026
6000000.00008
6000000.00006
6000000.0004
5999999.99887
6000000.0014
6000000.00093
6000000.00058
6000000.00041
5999999.99903
6000000.00012
5999999.99992
6000000.00002
6000000.00019
6000000.00107
5999999.9991
5999999.99693
6000000.00222
5999999.99787
6000000.00229
5999999.99612
5999999.99904
5999999.99962
5999999.99661
5999999.99981
6000000.0046
5999999.99452
5999999.99348
6000000.00243
5999999.99292
5999999.99393
6000000.00093
5999999.99724
5999999.99831
5999999.99551
6000000.00246
6000000.00251
5999999.9965
6000000.00404
5999999.99792
5999999.9974
6000000.00263
6000000.00297
5999999.99946
5999999.99929
5999999.99957
6000000.00022
5999999.9997
5999999.99913
6000000.00202
5999999.99945
6000000.0022
5999999.9986
5999999.99802
6000000.00026
5999999.99887
5999999.9994
5999999.99821
5999999.99844
5999999.99853
5999999.99979
5999999.99849
6000000.00351
5999999.99943
5999999.99745
5999999.99982
5999999.99999
5999999.99996
5999999.99983
5999999.99983
6000000.00022
5999999.99998
5999999.99996
6000000.00014
6000000.00013
5999999.99998
6000000.00007
5999999.99998
6000000.00018
6000000.00094
6000000.00047
5999999.99752
5999999.99759
6000000.0015
6000000.00022
5999999.99998
5999999.99997
6000000.00005
5999999.99989
5999999.99964
6000000.00013
5999999.99987
5999999.99898
6000000.00071
5999999.9998
6000000.00165
5999999.99879
6000000.0003
6000000.002
5999999.99947
6000000.00037
5999999.99915
5999999.99993
5999999.99991
5999999.99999
5999999.99983
5999999.9999
6000000.00007
5999999.9992
5999999.99826
6000000.0001
5999999.99911
6000000.00233
5999999.99775
6000000.00139
6000000.00073
5999999.9998
6000000.00047
6000000.00152
5999999.99901
5999999.99625
6000000.0041
6000000.00018
6000000.00014
6000000.00082
6000000.00223
6000000.00029
5999999.99693
6000000.00467
6000000.00289
5999999.99959
5999999.99786
6000000.00214
6000000.00186
5999999.99896
6000000.00546
6000000.00029
6000000.00245
5999999.99695
5999999.99744
6000000.00133
5999999.99891
5999999.99964
5999999.99668
6000000.00383
6000000.00121
5999999.99852
6000000.00027
5999999.99835
6000000.00378
5999999.99829
6000000.00183
5999999.99402
6000000.00684
6000000.00522
5999999.99832
6000000.00128
5999999.99229
5999999.99212
6000000.0032
6000000.00236
6000000.00413
5999999.99753
5999999.99492
6000000.00419
5999999.99586
5999999.99889
5999999.99888
5999999.99779
6000000.00134
5999999.9988
6000000.00041
5999999.99988
5999999.99943
6000000.00047
5999999.99749
6000000.00245
5999999.99947
5999999.99859
6000000.00303
5999999.99776
6000000.00146
5999999.9959
6000000.00045
6000000
5999999.99964
5999999.99848
5999999.99847
6000000.00164
6000000.00201
5999999.99909
6000000.00667
6000000.00255
5999999.99388
6000000.00321
5999999.99842
6000000.00686
6000000.00575
5999999.99743
5999999.99585
5999999.99878
6000000.00643
6000000.00195
5999999.99685
5999999.99536
5999999.99532
6000000.00289
5999999.99695
5999999.9945
5999999.99793
5999999.99486
6000000.00402
5999999.99736
5999999.99606
5999999.99861
6000000.00177
5999999.99713
5999999.99712
6000000.0012
6000000.00138
5999999.99597
5999999.99767
5999999.99534
5999999.99533
5999999.99716
5999999.99883
6000000.00102
5999999.99247
5999999.9938
6000000.00205
6000000.00058
5999999.99504
5999999.99534
5999999.99498
5999999.99352
6000000.00435
5999999.99663
5999999.99243
6000000.00037
5999999.99583
6000000.00261
6000000.00481
5999999.99264
5999999.99461
5999999.99767
6000000.00561
6000000.00067
5999999.9974
6000000.00303
6000000.0063
5999999.99976
6000000.00598
5999999.99634
5999999.99365
6000000.00364
6000000.00072
5999999.99952
5999999.99463
5999999.99638
6000000.0026
5999999.99617
5999999.99851
6000000.00206
5999999.9989
6000000.00303
6000000.00709
6000000.00314
5999999.99837
5999999.99527
5999999.9973
6000000.00569
6000000.00224
5999999.99565
5999999.99727
6000000.00085
6000000.00622
6000000.00095
5999999.99893
5999999.99972
6000000.00145
5999999.99862
5999999.99908
6000000.00336
6000000.00173
5999999.99692
6000000.00258
5999999.99677
5999999.99956
5999999.99733
6000000.00039
6000000.00242
5999999.99427
5999999.99997
6000000.00098
5999999.99418
5999999.99752
6000000.00293
5999999.99806
5999999.99815
6000000.00255
5999999.99841
5999999.99657
5999999.99566
5999999.99781
5999999.99592
5999999.99931
5999999.99792
6000000.00673
5999999.99771
6000000.0003
6000000.00529
5999999.9986
6000000.00139
5999999.99993
6000000.00834
5999999.9972
6000000.00091
6000000.0063
6000000.00679
5999999.99902
5999999.99818
6000000.0099
6000000.00774
6000000.00605
5999999.99802
5999999.99817
6000000.00795
6000000.00826
6000000.00181
6000000.00673
6000000.0023
5999999.99516
6000000.00683
6000000.00776
6000000.00013
5999999.99732
6000000.00741
6000000.00253
5999999.99413
6000000.0024
6000000.00217
6000000.00909
6000000.00756
5999999.99771
6000000.00238
6000000.00705
5999999.99614
5999999.99963
6000000.00642
6000000.0091
6000000.0006
6000000.00636
6000000.00545
6000000.00491
5999999.99802
6000000.0013
6000000.00838
6000000.00955
6000000.01007
6000000.00296
6000000.00303
6000000.00641
6000000.01021
5999999.99971
6000000.00295
6000000.00569
5999999.99667
6000000.00545
6000000.00518
6000000.00992
6000000.00421
6000000.00734
6000000.00565
5999999.99366
6000000.00685
6000000.00202
5999999.9987
6000000.00875
5999999.99876
5999999.99974
5999999.99856
6000000.00036
5999999.99828
5999999.99965
5999999.999
5999999.9995
5999999.99925
5999999.99945
5999999.99718
5999999.99775
5999999.99951
5999999.99813
6000000.00025
5999999.99831
5999999.99867
5999999.99832
6000000.00013
5999999.99785
5999999.99747
5999999.99867
5999999.99963
5999999.99851
5999999.99872
5999999.99957
5999999.99752
5999999.9984
5999999.99928
5999999.9958
5999999.99847
6000000.00016
5999999.99923
5999999.9968
5999999.99935
5999999.99741
5999999.99996
5999999.99884
5999999.99865
5999999.99676
5999999.99889
6000000.00009
5999999.99781
5999999.99945
5999999.99958
5999999.99874
5999999.9988
5999999.99913
5999999.9966
5999999.99693
5999999.99943
5999999.99993
6000000.00024
6000000.0002
5999999.99831
5999999.99893
5999999.99786
5999999.9983
5999999.99824
5999999.99872
5999999.99958
6000000.00032
6000000.00213
5999999.99832
5999999.99938
5999999.99942
5999999.99992
5999999.99964
6000000.0007
5999999.99987
5999999.99955
6000000.00035
5999999.99984
5999999.99979
5999999.9998
5999999.99982
6000000.00053
6000000.00015
5999999.99982
5999999.99963
6000000.00026
6000000.00032
5999999.99981
6000000.00053
5999999.99991
6000000.00035
5999999.99996
5999999.99994
6000000.00026
6000000.00003
6000000.00037
5999999.99979
6000000.00006
5999999.99959
6000000.00029
6000000.00047
6000000.00022
6000000.00048
5999999.99993
6000000.00068
6000000.0005
5999999.99963
6000000.00044
5999999.99996
6000000.00032
6000000.00009
5999999.99958
6000000.00077
6000000.00031
6000000.00045
6000000.00029
5999999.99952
5999999.99991
5999999.99978
6000000.00011
6000000
6000000.0003
6000000.00045
5999999.99974
6000000.00008
6000000.00027
6000000.00015
6000000.00029
6000000.00016
6000000.00017
6000000.00046
5999999.99977
6000000.00061
6000000.00078
6000000.00104
6000000.001
6000000.00109
6000000.00061
6000000.00102
6000000.00087
6000000.00123
6000000.00085
6000000.00081
6000000.00087
6000000.00088
6000000.00081
6000000.00083
6000000.00093
6000000.00099
6000000.00084
6000000.00099
6000000.00112
6000000.0009
6000000.00115
6000000.00122
6000000.00076
6000000.001
6000000.00099
6000000.00093
6000000.00078
6000000.00062
6000000.00102
6000000.0009
6000000.00087
6000000.00086
6000000.00091
6000000.00118
6000000.00072
6000000.00098
6000000.00076
6000000.00087
6000000.0007
6000000.00086
6000000.00101
6000000.00113
6000000.00101
6000000.00095
6000000.00096
6000000.00094
6000000.00076
6000000.00104
6000000.0012
6000000.0013
6000000.00073
6000000.00088
6000000.00088
6000000.00098
6000000.00098
6000000.00096
6000000.00099
6000000.00107
6000000.00104
6000000.00104
6000000.00092
6000000.00123
6000000.00136
6000000.00089
5999999.99898
5999999.99866
5999999.99876
5999999.999
5999999.99867
5999999.99912
5999999.99879
5999999.99876
5999999.99869
5999999.9987
5999999.99886
5999999.99902
5999999.99902
5999999.99881
5999999.99866
5999999.9987
5999999.99881
5999999.99899
5999999.99888
5999999.99901
5999999.9988
5999999.99875
5999999.99913
5999999.99897
5999999.99866
5999999.99888
5999999.99934
5999999.99874
5999999.99896
5999999.99906
5999999.99901
5999999.99938
5999999.99905
5999999.99909
5999999.99887
5999999.99884
5999999.9991
5999999.99866
5999999.99856
5999999.9987
5999999.99907
5999999.99907
5999999.99889
5999999.99903
5999999.99892
5999999.99898
5999999.9992
5999999.999
5999999.99881
5999999.99892
5999999.99887
5999999.99864
5999999.99881
5999999.99861
5999999.99894
5999999.99889
5999999.99897
5999999.999
5999999.99883
5999999.99881
5999999.99876
5999999.99904
5999999.99882
5999999.99887
5999999.99942
5999999.99939
5999999.99944
5999999.99982
5999999.99978
5999999.9996