/*--------------------------------*- C++ -*----------------------------------*\
  =========                 |
  \\      /  F ield         | OpenFOAM: The Open Source CFD Toolbox
   \\    /   O peration     | Website:  https://openfoam.org
    \\  /    A nd           | Version:  6
     \\/     M anipulation  |
\*---------------------------------------------------------------------------*/
FoamFile
{
    version     2.0;
    format      ascii;
    class       volScalarField;
    location    "4.55e-05";
    object      p;
}
// * * * * * * * * * * * * * * * * * * * * * * * * * * * * * * * * * * * * * //

dimensions      [1 -1 -2 0 0 0 0];

internalField   nonuniform List<scalar> 
8192
(
6000000.00048
5999999.99946
6000000.00054
6000000.00057
6000000.00398
5999999.99751
6000000.00125
6000000
6000000.00006
5999999.99979
6000000.00027
5999999.99978
6000000.00061
6000000.00143
6000000.00076
6000000.00045
6000000.00064
5999999.99871
5999999.99896
6000000.00067
5999999.99852
5999999.99723
6000000.00176
5999999.9998
5999999.99958
6000000.0001
5999999.99875
5999999.99931
5999999.99823
5999999.99946
6000000.00009
6000000.00032
5999999.99682
5999999.9936
6000000.00772
6000000.00767
5999999.99901
6000000.00467
5999999.99921
5999999.9976
6000000.00261
5999999.99825
5999999.99996
5999999.99993
6000000.00029
6000000.00017
6000000.00001
6000000.00016
5999999.99912
6000000.00125
5999999.99751
6000000.00029
6000000.00279
5999999.99643
5999999.99719
6000000.0015
6000000.00011
6000000.0029
5999999.99975
6000000.00501
5999999.99687
5999999.99768
5999999.99727
6000000.00177
6000000.00036
6000000.00176
5999999.99952
6000000.00355
5999999.99623
6000000.00282
5999999.99887
5999999.99742
6000000.00254
6000000.00286
6000000.00687
5999999.99674
5999999.99416
6000000.00651
6000000.00255
5999999.99559
5999999.9951
5999999.99289
6000000.00316
6000000.00586
6000000.00009
5999999.99898
6000000.00648
6000000.00483
5999999.99811
5999999.99716
5999999.99889
5999999.99844
5999999.99727
6000000.00357
5999999.99724
6000000.00173
6000000.00158
5999999.99947
6000000.00379
5999999.99827
5999999.99971
5999999.99988
5999999.9997
6000000.00009
5999999.9992
6000000.00028
6000000.00011
6000000
5999999.99998
5999999.99998
6000000.00005
6000000.00012
5999999.99961
6000000.00057
5999999.9998
6000000.00102
6000000.00014
5999999.999
6000000.00084
5999999.99941
5999999.99928
5999999.99904
6000000.00002
5999999.99952
6000000.00017
5999999.99958
6000000.00032
6000000.0003
6000000.00549
6000000.00065
5999999.998
6000000.00062
5999999.99907
5999999.99941
6000000.00002
5999999.99989
6000000.00032
6000000.00087
5999999.99851
6000000.00372
6000000.00083
6000000.00323
6000000.00459
5999999.99697
5999999.99643
5999999.99805
6000000.00216
6000000.00233
5999999.99995
5999999.99984
5999999.99884
6000000.00067
5999999.99526
6000000.00107
5999999.99658
5999999.99647
6000000.00128
6000000.00042
5999999.99875
5999999.99912
5999999.99979
5999999.99958
6000000.00028
6000000.00052
5999999.99965
6000000.00233
6000000.0002
6000000.00093
5999999.99844
6000000.00048
5999999.99781
6000000.00301
6000000.0022
6000000.00281
6000000.00191
6000000.00413
6000000.00232
6000000.00088
5999999.99437
6000000.0025
6000000.00134
5999999.99839
6000000.00075
5999999.99806
6000000.00257
6000000.00122
6000000.00217
5999999.9942
5999999.99238
6000000.00183
6000000.00638
6000000.00419
5999999.99937
5999999.99977
6000000.00052
6000000.00008
5999999.99992
6000000.00001
5999999.99997
6000000.00001
6000000.00015
6000000.00001
6000000.00009
5999999.99795
5999999.99778
6000000.00256
5999999.99927
5999999.99999
6000000.00003
5999999.99998
6000000.00006
6000000.0002
6000000.00019
5999999.99944
5999999.99994
6000000.00003
5999999.99981
5999999.99998
5999999.9999
5999999.99662
6000000.00033
6000000.00144
5999999.99719
6000000.0009
6000000.00704
5999999.99399
5999999.99669
6000000.00539
6000000.00869
5999999.99171
5999999.99601
6000000.00169
6000000.00375
5999999.996
6000000.00293
6000000.00008
6000000.0043
5999999.99818
6000000.00723
6000000.00369
5999999.99255
6000000.00033
6000000.00566
5999999.99794
6000000.00509
5999999.99458
5999999.99886
6000000.00175
6000000.00269
6000000.00331
6000000.00058
6000000.0021
6000000.0007
5999999.99897
5999999.99944
5999999.99916
5999999.99981
5999999.99892
6000000.00039
5999999.99821
6000000.00254
5999999.99866
5999999.99977
5999999.99941
5999999.99982
5999999.99992
5999999.99996
6000000.00092
6000000.00147
5999999.99717
6000000.00049
6000000.00069
6000000.0001
6000000.00236
5999999.99525
5999999.99737
6000000.00543
6000000.00146
5999999.99619
5999999.99533
5999999.99915
5999999.99512
5999999.99826
5999999.99491
6000000.00134
6000000.00454
5999999.99655
6000000.0006
5999999.9991
6000000.00134
5999999.99975
5999999.99919
6000000.00166
5999999.99752
6000000.00137
6000000.00001
6000000.00002
6000000.00016
6000000.00001
6000000.00001
6000000.00002
6000000.00019
5999999.99889
6000000.0016
5999999.99736
5999999.99976
5999999.99886
6000000.00111
6000000.00481
5999999.99827
5999999.99447
6000000.00252
6000000.00558
5999999.99819
6000000.00346
5999999.99821
6000000.00599
5999999.997
5999999.99716
5999999.99666
6000000.00233
6000000.0017
5999999.99625
6000000.00179
6000000.00072
6000000.00053
6000000.00068
5999999.99929
6000000
6000000.00033
5999999.99856
6000000.00273
6000000.00234
6000000.00094
6000000.00015
5999999.99965
5999999.99752
5999999.99779
6000000.00053
6000000.00066
5999999.99986
5999999.99876
5999999.99817
6000000.00092
5999999.9969
6000000.00072
5999999.99706
5999999.9939
5999999.9964
6000000.00304
5999999.99765
5999999.99623
6000000.00733
5999999.99874
6000000.00302
6000000.00016
5999999.99736
6000000.00393
5999999.99631
6000000.00316
5999999.99972
5999999.99958
6000000.00045
6000000
6000000.0003
6000000.00011
6000000.00033
6000000.0017
5999999.99843
6000000.00283
6000000.00085
5999999.99809
6000000.00164
5999999.99987
5999999.99982
6000000.00403
5999999.99865
6000000.00309
6000000.00319
5999999.99358
5999999.99329
5999999.99581
5999999.99879
6000000.00076
6000000.00163
6000000.00208
5999999.99521
5999999.99172
6000000.00159
5999999.99662
5999999.99861
6000000.00541
5999999.99848
5999999.99888
6000000.00167
5999999.99725
5999999.99794
6000000.00657
5999999.99602
5999999.99885
5999999.9934
6000000.00134
6000000.00529
6000000.00001
5999999.99795
5999999.99146
6000000.0034
5999999.99963
6000000.00389
5999999.99832
5999999.99703
6000000.00257
5999999.99508
5999999.99424
6000000.00016
6000000.00306
5999999.99818
5999999.99783
5999999.99755
6000000.00185
6000000.00207
5999999.99831
6000000.00151
5999999.99874
5999999.99938
6000000.0005
5999999.9997
5999999.99997
6000000.00005
5999999.99997
6000000.00097
5999999.99673
6000000.00091
6000000.00015
5999999.99955
5999999.99744
6000000.00132
6000000.00063
5999999.99879
6000000.00087
6000000.00112
5999999.99818
5999999.99918
6000000.00027
5999999.99946
5999999.99754
5999999.99709
5999999.99876
5999999.99635
6000000.00186
6000000.00184
6000000.00059
6000000.00029
5999999.99943
6000000.00213
5999999.99818
6000000.00285
6000000.0021
5999999.99522
6000000.00435
6000000.00143
6000000.00046
6000000.00082
5999999.99861
6000000.00201
5999999.99954
5999999.99937
6000000.00055
6000000.00015
5999999.99971
5999999.99793
6000000.00302
5999999.99747
5999999.99961
6000000.00127
5999999.99741
6000000.00292
5999999.99714
6000000.00177
5999999.99919
5999999.99993
5999999.99801
6000000.00264
6000000.00638
5999999.99807
5999999.99813
6000000.00045
6000000.00253
5999999.99876
5999999.99807
6000000.00448
5999999.99844
5999999.9999
5999999.99986
6000000.00064
6000000.00277
5999999.99784
6000000.00374
5999999.99858
5999999.99872
6000000.00174
5999999.99991
5999999.99982
6000000.0028
6000000.00101
6000000.00225
5999999.99924
5999999.99875
5999999.99945
5999999.99691
5999999.9955
6000000.00222
6000000.00067
5999999.99874
5999999.99964
5999999.99919
6000000.00003
5999999.99876
6000000.0004
5999999.99946
6000000.00024
6000000.00005
6000000.00001
6000000.00002
5999999.99937
6000000.00025
6000000.00004
5999999.99988
5999999.99989
5999999.99981
6000000.00009
6000000.00013
5999999.99986
5999999.99989
5999999.99982
6000000.00002
5999999.99981
5999999.99992
5999999.99979
5999999.9998
6000000.00001
6000000
5999999.99981
5999999.99998
6000000.00001
5999999.99995
5999999.99867
6000000.00261
5999999.99825
5999999.99941
5999999.99946
5999999.99952
6000000.00004
5999999.99998
6000000.00001
6000000.00004
6000000.00055
6000000.00021
6000000.00002
6000000.00007
5999999.99967
5999999.99766
6000000.00255
6000000.00185
5999999.99908
5999999.99412
5999999.99252
6000000.00189
6000000.00486
6000000.00168
6000000.00408
5999999.99672
6000000.00451
5999999.99391
6000000.00069
5999999.99663
6000000.00047
6000000.00026
6000000.0021
5999999.99925
6000000.00157
5999999.99737
6000000.00105
6000000.00005
6000000.00004
6000000.00025
6000000.00015
5999999.99991
5999999.99936
6000000.00197
5999999.99983
6000000.00001
6000000.00002
5999999.99992
5999999.99993
6000000.00005
6000000.00028
5999999.99954
5999999.99918
5999999.99912
5999999.99885
5999999.99979
5999999.99888
5999999.99776
6000000.00123
6000000.00074
6000000.00068
6000000.00186
5999999.99788
5999999.99713
6000000.0077
6000000.00351
6000000.00093
6000000.00346
5999999.99745
5999999.99926
6000000.0003
5999999.99981
6000000.00033
6000000.00006
6000000.00052
6000000.00002
6000000.00191
5999999.99916
5999999.99895
6000000.00007
5999999.99967
6000000.00027
6000000.00452
5999999.99993
5999999.99761
6000000.00312
6000000.00187
6000000.00092
6000000.00089
5999999.99741
5999999.99842
6000000.00473
6000000.00436
6000000.00281
5999999.9979
5999999.99775
6000000.00245
5999999.99973
5999999.99843
5999999.99764
6000000.00297
6000000.00202
6000000.00019
6000000.00128
5999999.99873
6000000.00086
5999999.99958
6000000.00057
6000000.00058
6000000.0005
6000000.00067
5999999.99936
5999999.99903
6000000.0017
6000000.00137
5999999.99355
5999999.99514
6000000.00357
6000000.00133
5999999.99998
5999999.99846
6000000.00252
5999999.99762
6000000.00084
6000000.00148
6000000.0024
5999999.99392
6000000.00291
6000000.00176
6000000.00525
5999999.99514
5999999.9975
6000000.00143
6000000.0011
5999999.99449
5999999.99857
6000000.0032
6000000.00588
5999999.99889
6000000.00177
6000000.00137
6000000.00453
5999999.99714
6000000.00115
6000000.00168
5999999.99602
6000000.00328
6000000.00312
6000000.0057
6000000.00886
5999999.99508
5999999.99777
6000000.0041
6000000.00613
5999999.99407
5999999.99416
6000000.00232
5999999.99761
6000000.00001
6000000.00043
5999999.99716
6000000.00251
5999999.99777
6000000.00136
5999999.99716
5999999.99549
6000000.00283
6000000.00353
5999999.99912
6000000.0035
6000000.00161
6000000.00059
5999999.99949
5999999.99984
5999999.99833
6000000.0039
6000000.00775
5999999.99642
5999999.99881
5999999.99208
6000000.00528
6000000.0063
5999999.99589
5999999.99682
5999999.99622
5999999.99769
5999999.99623
6000000.00032
5999999.9994
6000000.00052
5999999.99961
5999999.99951
6000000.00281
5999999.99528
5999999.99558
5999999.99655
6000000.00555
6000000.00005
5999999.99951
6000000.00097
5999999.99953
6000000.00205
5999999.99941
6000000.00154
6000000.00616
5999999.99616
5999999.99504
5999999.99391
6000000.00255
6000000.00244
5999999.99323
5999999.99765
5999999.9967
6000000.00141
5999999.99852
5999999.99425
6000000.00407
6000000.00352
6000000.0001
6000000.00089
5999999.99998
6000000.00018
6000000.00009
6000000.00006
6000000.00001
5999999.99998
5999999.99992
5999999.99988
6000000.00015
6000000.00011
5999999.99918
6000000.00136
6000000.00499
6000000.00024
6000000.00039
6000000.00211
5999999.99924
6000000.00256
6000000.00054
5999999.9997
5999999.99994
5999999.99983
6000000.00157
5999999.99772
5999999.99751
6000000.00132
5999999.99764
6000000.00068
5999999.99938
5999999.99986
5999999.99973
6000000
5999999.99985
6000000.00004
5999999.99997
5999999.99742
6000000.00274
5999999.999
5999999.99939
5999999.9999
5999999.99702
6000000.00087
6000000.00067
6000000.00004
6000000.00027
5999999.99885
6000000.00306
5999999.99989
5999999.99997
6000000.00051
5999999.9995
6000000.0004
5999999.99825
6000000.00447
6000000.00303
5999999.99655
5999999.99809
6000000.00222
5999999.99806
6000000.00306
5999999.99957
6000000.00001
6000000
5999999.99975
6000000.00009
5999999.99958
6000000.00107
5999999.99766
6000000.00175
6000000.00083
6000000.00062
5999999.99966
6000000.00041
5999999.99726
6000000.00618
6000000.00307
5999999.99505
6000000.00153
6000000.00326
6000000.00413
5999999.99674
5999999.99564
6000000.00271
5999999.99876
5999999.99969
6000000.00007
5999999.99994
5999999.99992
5999999.99998
6000000.00002
5999999.99989
5999999.99993
5999999.99989
6000000.00008
5999999.9989
6000000.00162
5999999.99765
5999999.99946
6000000.00141
5999999.99436
6000000.00456
6000000.00459
6000000.00174
5999999.9991
6000000.00339
6000000.00495
5999999.9977
5999999.99655
6000000.00373
5999999.99975
6000000.00333
6000000.00487
6000000.00056
6000000.00599
6000000.00003
5999999.99976
6000000.00103
6000000.00067
5999999.99989
6000000.00001
6000000.00339
5999999.99884
6000000.00115
6000000.00191
6000000.00326
6000000.00203
5999999.99433
6000000.00119
6000000.00044
5999999.99999
5999999.99925
6000000.00495
6000000.00256
5999999.99835
6000000.0025
5999999.99996
5999999.99981
6000000.00068
5999999.99933
6000000.00169
5999999.99335
6000000.00288
6000000.00191
5999999.99954
5999999.99948
6000000.00015
6000000.00057
6000000.00018
6000000.00003
6000000.00002
6000000.00001
6000000.00001
5999999.99989
6000000.00001
5999999.99981
6000000.00001
6000000.00007
5999999.99947
6000000.00064
6000000.00001
5999999.99981
5999999.99986
6000000.00002
5999999.99906
5999999.99995
6000000.0003
6000000.00071
5999999.99805
5999999.99829
6000000.00093
6000000.00107
5999999.99955
6000000.00055
5999999.99871
6000000.00231
6000000.0018
6000000.00056
6000000.00034
5999999.99951
5999999.99878
6000000.00217
5999999.99518
6000000.00672
5999999.99666
5999999.99534
6000000.00439
6000000.00352
6000000.00531
6000000.00002
6000000.0001
5999999.99585
5999999.99507
5999999.99614
6000000.0013
5999999.9977
6000000.00443
5999999.99961
5999999.99803
6000000.00072
5999999.99784
6000000.00124
5999999.99805
6000000.00451
5999999.99442
5999999.9966
6000000.005
5999999.9957
5999999.99692
5999999.9984
6000000.00124
6000000.00127
6000000.00087
6000000.00002
6000000.00096
6000000
6000000.00199
5999999.99597
6000000.00126
6000000.00079
5999999.9999
5999999.99779
5999999.9997
5999999.99973
5999999.9977
5999999.99896
6000000.00093
5999999.99996
6000000.00111
6000000.00181
5999999.99835
5999999.99893
6000000.00357
5999999.9993
5999999.99987
5999999.99998
6000000.00001
6000000.00001
6000000.00014
6000000.00002
6000000
6000000.00024
6000000.00043
5999999.99707
6000000.00029
5999999.99994
5999999.99979
6000000.00001
6000000.00034
5999999.9982
6000000.00271
6000000.00186
5999999.99498
6000000.00679
5999999.99385
5999999.99253
6000000.00326
6000000.00535
5999999.99314
5999999.99775
5999999.99787
5999999.99973
6000000.00164
5999999.99848
6000000.00107
5999999.99693
5999999.99766
5999999.99986
5999999.99825
6000000.0022
5999999.99731
6000000.00184
6000000.00315
5999999.99536
5999999.99672
5999999.99536
5999999.9997
6000000.00466
6000000.00159
5999999.99628
5999999.99298
6000000.00401
6000000.00325
5999999.99464
5999999.9987
6000000.00484
6000000.00405
5999999.99743
5999999.99839
6000000.0033
5999999.99989
6000000.00002
6000000.00001
5999999.99999
6000000.00036
6000000.00153
5999999.9987
5999999.99854
5999999.99926
5999999.99994
6000000.00074
5999999.99997
6000000.00032
5999999.99868
5999999.99797
6000000.00122
6000000.00023
6000000.00004
6000000.00002
6000000
5999999.99988
5999999.99996
6000000.0001
5999999.99972
5999999.99859
6000000.00021
6000000.00253
5999999.99786
5999999.99987
5999999.99994
5999999.9958
6000000.00125
6000000.00064
6000000.00321
6000000.00137
6000000.00011
6000000.0006
6000000.00036
5999999.99779
6000000.00339
5999999.9975
6000000.00228
6000000.00141
6000000.00429
5999999.99972
5999999.99961
6000000.00597
6000000.00241
6000000.00245
6000000.00176
5999999.99604
5999999.99906
6000000.00206
6000000.00016
5999999.99745
5999999.99787
6000000.0015
5999999.99688
5999999.99938
5999999.99751
6000000.00021
6000000.00213
5999999.99905
5999999.99898
5999999.99872
5999999.99986
5999999.99976
6000000.00062
6000000.00013
6000000.00022
5999999.9994
6000000.0012
6000000.00146
5999999.99753
6000000.00001
6000000.00011
6000000.00002
6000000.00011
6000000.00007
6000000.0004
6000000.00112
5999999.99855
6000000.00195
6000000.00134
5999999.99696
6000000.00426
5999999.99499
5999999.99918
6000000.00268
6000000.00655
6000000.00311
6000000.00168
6000000.00162
5999999.99365
5999999.99752
5999999.99836
5999999.99962
6000000.00241
6000000.00512
5999999.99381
5999999.99709
5999999.99462
6000000.0059
6000000.00278
6000000.00259
5999999.99906
6000000.00053
6000000.0008
6000000.00145
5999999.99948
5999999.99909
5999999.9997
6000000.00001
6000000
6000000.00062
5999999.9992
6000000.00093
5999999.99933
6000000.0002
5999999.99888
5999999.99588
6000000.00216
6000000.00081
5999999.9958
5999999.99537
6000000.00581
5999999.99783
5999999.99568
6000000.00178
6000000.00645
5999999.99519
6000000.00361
5999999.99903
5999999.99881
6000000.00427
5999999.99968
6000000.00013
6000000
6000000.00001
6000000.00007
6000000.00001
6000000.00007
6000000.00002
6000000.00007
6000000.0002
6000000.00025
6000000.00003
6000000.00002
5999999.99979
6000000.00057
6000000.0016
5999999.99633
6000000.00341
6000000.00517
5999999.99855
6000000.00159
6000000.00143
6000000.00166
5999999.99948
6000000.00043
5999999.99366
6000000.00096
5999999.99921
6000000.0015
6000000.00171
5999999.99893
5999999.99876
5999999.99923
5999999.99939
6000000.00016
5999999.99897
6000000.00101
6000000.00224
5999999.99864
5999999.99949
5999999.99939
6000000.00049
6000000.00005
6000000.00001
5999999.99996
5999999.99946
6000000.00047
5999999.99943
5999999.99767
6000000.00306
5999999.99695
6000000.0018
5999999.9993
5999999.99953
5999999.9997
5999999.99928
6000000.00196
5999999.99539
6000000.00205
5999999.99943
5999999.99961
6000000.00003
5999999.99944
5999999.9999
5999999.99992
6000000.00059
5999999.99906
5999999.99919
6000000.00001
5999999.99993
5999999.99992
5999999.99998
6000000.00009
5999999.99993
5999999.99984
6000000.00001
5999999.99989
5999999.9999
6000000.00001
5999999.99986
6000000.00068
5999999.99997
6000000.00013
6000000.00012
6000000.00102
5999999.99869
6000000.00191
5999999.99706
6000000.00184
6000000.00121
6000000.00197
6000000.00247
5999999.99692
5999999.99959
5999999.99839
6000000.00171
5999999.99915
5999999.99787
6000000.00086
5999999.99875
5999999.99939
5999999.99982
6000000.00035
6000000.00355
6000000.00122
6000000.00331
5999999.99883
6000000.00027
6000000.00201
5999999.99548
6000000.00129
5999999.99682
6000000.00423
6000000.00254
5999999.99493
5999999.99557
5999999.99538
6000000.00523
6000000.00199
6000000.00592
5999999.99695
5999999.99724
6000000.00093
5999999.99438
5999999.99519
5999999.9974
5999999.99816
6000000.00133
5999999.99607
5999999.99752
5999999.99275
5999999.99971
5999999.9951
5999999.99774
5999999.99701
5999999.99694
5999999.99661
5999999.9954
6000000.00355
6000000.00071
6000000.00084
5999999.99587
6000000.00133
6000000.00016
5999999.99976
6000000.00038
5999999.99946
5999999.9999
5999999.99672
6000000.00387
5999999.99421
5999999.99439
6000000.00151
5999999.99488
5999999.99499
6000000.00617
5999999.99525
5999999.99399
6000000.0007
6000000.00162
5999999.99988
6000000.00054
6000000.00012
6000000.00004
5999999.9999
6000000.00044
5999999.99952
6000000.00042
6000000.00001
6000000.00014
6000000.00007
5999999.99992
5999999.99993
6000000.00005
6000000.00073
5999999.99916
5999999.99948
6000000.00127
5999999.99985
5999999.99993
5999999.99981
5999999.99957
5999999.99903
6000000.00028
6000000.00002
5999999.9997
5999999.99992
5999999.99957
6000000.00023
6000000.00152
5999999.99926
6000000.00096
6000000.00204
6000000.00237
5999999.99707
5999999.99802
6000000.00236
5999999.99971
6000000.00057
6000000.00053
5999999.99761
6000000.0023
6000000.00168
6000000.00032
5999999.99894
6000000.00008
5999999.99789
6000000.00242
6000000.00052
6000000.0012
5999999.9991
5999999.99838
6000000.00478
6000000.00506
5999999.99275
5999999.99711
6000000.00204
6000000.00153
5999999.99882
6000000.00122
5999999.99996
6000000.00283
5999999.999
6000000.00142
5999999.99978
5999999.99984
6000000.00001
6000000.00004
5999999.99996
5999999.99998
5999999.99998
6000000.00001
6000000.00004
6000000.00014
6000000.00001
6000000.00001
6000000.00001
5999999.99998
6000000.00016
6000000.00001
6000000.00001
5999999.99993
5999999.99996
6000000.00014
6000000.00003
5999999.99995
6000000.00014
6000000.00001
6000000.00001
5999999.99991
6000000.00011
5999999.99995
6000000.00002
5999999.99998
5999999.99956
5999999.99953
5999999.99988
6000000.00008
6000000.00192
5999999.99927
5999999.99976
5999999.99992
6000000.00006
6000000.00001
6000000.00009
5999999.99993
6000000.00001
6000000.00001
5999999.99995
5999999.99945
6000000.00051
5999999.99885
6000000.00245
5999999.99993
5999999.99898
6000000.0015
5999999.99869
6000000.00282
6000000.00392
5999999.99915
5999999.99966
6000000.00634
6000000.0009
6000000.00061
6000000.00047
5999999.9998
6000000.00004
6000000.00006
6000000.00025
6000000.00004
6000000.00006
6000000.00009
5999999.99962
6000000.00051
6000000.00019
6000000.00022
6000000.00016
5999999.99989
6000000.00002
5999999.99992
6000000.00002
5999999.99997
6000000.00061
5999999.99831
5999999.99781
6000000.00311
5999999.99788
6000000.00287
5999999.99745
5999999.99917
6000000.00006
5999999.99758
5999999.99921
6000000.00283
5999999.99602
5999999.99418
6000000.00064
5999999.99439
5999999.99321
6000000.00159
5999999.99722
5999999.99932
5999999.9962
6000000.00189
6000000.00175
5999999.99758
6000000.0036
5999999.99816
5999999.99824
6000000.00179
6000000.00163
6000000.00022
5999999.99954
5999999.99988
6000000.00004
5999999.99992
5999999.9998
6000000.00091
5999999.99957
6000000.00137
5999999.9987
5999999.99861
6000000.00028
5999999.99893
5999999.9994
5999999.99813
5999999.99902
5999999.99905
5999999.99995
5999999.99899
6000000.00337
5999999.99938
5999999.999
5999999.99967
5999999.99998
5999999.99996
5999999.99983
5999999.99983
6000000.00023
5999999.99998
5999999.99996
6000000.00014
6000000.00003
5999999.99998
6000000.00007
5999999.99998
6000000.00016
5999999.99993
6000000.00067
5999999.99791
5999999.99912
6000000.00052
6000000.00001
5999999.99998
5999999.99997
6000000.00001
5999999.99989
5999999.99985
6000000.00003
5999999.99993
5999999.99926
6000000.00052
5999999.99949
6000000.00071
5999999.99972
5999999.9999
6000000.0014
5999999.99958
5999999.99993
5999999.99994
6000000.00004
5999999.99991
5999999.99999
5999999.99983
5999999.99991
5999999.99998
5999999.99988
5999999.99912
6000000.00024
5999999.99907
6000000.00273
5999999.99907
6000000.00046
6000000.00015
5999999.99986
5999999.99991
6000000.00068
5999999.99943
5999999.99557
6000000.00257
6000000.00016
6000000.00012
6000000.00021
6000000.00083
6000000.00068
5999999.99827
6000000.0029
6000000.00331
6000000.00035
5999999.99841
6000000.00259
6000000.00177
5999999.99824
6000000.00411
6000000.00039
6000000.00252
5999999.99688
5999999.99778
6000000.00074
5999999.99909
6000000
5999999.99726
6000000.00322
6000000.00059
5999999.99947
6000000.00017
5999999.99841
6000000.00227
5999999.9987
6000000.00166
5999999.996
6000000.00475
6000000.00408
5999999.99805
6000000.00145
5999999.99373
5999999.99327
6000000.00351
6000000.00276
6000000.0051
5999999.99886
5999999.9964
6000000.00445
5999999.99669
5999999.99854
5999999.99893
5999999.99875
6000000.00042
5999999.99939
6000000.00013
5999999.99969
5999999.99971
6000000.00013
5999999.99824
6000000.00144
5999999.99972
5999999.9995
6000000.00121
5999999.99905
6000000.0008
5999999.99676
6000000.00003
5999999.99999
5999999.99964
5999999.99852
5999999.99843
6000000.00148
6000000.00089
5999999.99951
6000000.00567
6000000.00235
5999999.99597
6000000.00256
5999999.99871
6000000.00557
6000000.00386
5999999.99711
5999999.99558
5999999.99879
6000000.00653
6000000.002
5999999.99759
5999999.99699
5999999.99536
6000000.00296
5999999.99683
5999999.99533
5999999.99868
5999999.99467
6000000.00412
5999999.99739
5999999.9972
5999999.99884
6000000.00153
5999999.99747
5999999.99826
6000000.00154
6000000.00107
5999999.99716
5999999.99748
5999999.99625
5999999.99637
5999999.99702
5999999.99801
6000000.00035
5999999.99441
5999999.99464
6000000.00079
5999999.99998
5999999.99582
5999999.99593
5999999.99521
5999999.99433
6000000.00455
5999999.99762
5999999.99323
5999999.99968
5999999.99554
6000000.00184
6000000.00509
5999999.99251
5999999.99437
5999999.99763
6000000.00542
6000000.00135
5999999.99832
6000000.00362
6000000.00445
5999999.9998
6000000.0061
5999999.99619
5999999.99356
6000000.00374
6000000.0014
5999999.99937
5999999.99461
5999999.99635
6000000.00276
5999999.99596
5999999.99835
6000000.0021
5999999.99895
6000000.0029
6000000.00717
6000000.00332
5999999.9993
5999999.99521
5999999.99719
6000000.00586
6000000.00225
5999999.9956
5999999.99707
6000000.00086
6000000.0063
6000000.00098
5999999.99893
5999999.99982
6000000.00215
5999999.99847
5999999.99912
6000000.00411
6000000.00209
5999999.99697
6000000.0027
5999999.99659
5999999.99965
5999999.99738
6000000.0009
6000000.00162
5999999.99398
5999999.99999
6000000.00108
5999999.99411
5999999.99743
6000000.00334
5999999.99815
5999999.99814
6000000.00302
5999999.99837
5999999.99658
5999999.99578
5999999.99843
5999999.99667
5999999.9993
5999999.99784
6000000.00688
5999999.99753
6000000.00071
6000000.00534
5999999.99861
6000000.00202
6000000.00006
6000000.00877
5999999.99704
6000000.00061
6000000.00643
6000000.00706
5999999.99883
5999999.99769
6000000.01012
6000000.00796
6000000.00618
5999999.99808
5999999.99782
6000000.00804
6000000.00862
6000000.00176
6000000.00674
6000000.00238
5999999.99478
6000000.00678
6000000.00811
6000000.0001
5999999.99712
6000000.00765
6000000.00264
5999999.99387
6000000.00235
6000000.00219
6000000.00916
6000000.00785
5999999.99755
6000000.00214
6000000.00731
5999999.99617
5999999.99916
6000000.00656
6000000.00941
6000000.00045
6000000.00628
6000000.00569
6000000.00485
5999999.99794
6000000.00106
6000000.00843
6000000.00951
6000000.01024
6000000.00302
6000000.00289
6000000.00644
6000000.01045
5999999.99968
6000000.00274
6000000.00582
5999999.99653
6000000.00571
6000000.0053
6000000.00984
6000000.00422
6000000.00745
6000000.00583
5999999.99347
6000000.00688
6000000.00218
5999999.99832
6000000.0088
5999999.99884
5999999.99987
5999999.99866
6000000.00047
5999999.99827
5999999.99971
5999999.99902
5999999.9995
5999999.99933
5999999.99944
5999999.99738
5999999.99787
5999999.9996
5999999.99816
6000000.00021
5999999.99823
5999999.99869
5999999.99822
6000000.00017
5999999.99798
5999999.99736
5999999.99843
5999999.99972
5999999.99851
5999999.99884
5999999.99956
5999999.99739
5999999.99846
5999999.99927
5999999.99591
5999999.99846
6000000.00028
5999999.99922
5999999.99674
5999999.99941
5999999.99753
5999999.99987
5999999.99889
5999999.99873
5999999.99687
5999999.99919
6000000.00006
5999999.99788
5999999.99945
5999999.99966
5999999.99875
5999999.99892
5999999.99922
5999999.9967
5999999.99693
5999999.9994
5999999.99993
6000000.00019
6000000.0004
5999999.99818
5999999.99908
5999999.99794
5999999.99819
5999999.99834
5999999.99866
5999999.99961
6000000.00035
6000000.00211
5999999.9984
5999999.99943
5999999.99942
5999999.99981
5999999.99969
6000000.00069
5999999.9997
5999999.99953
6000000.00039
5999999.99973
5999999.99969
5999999.99968
5999999.99973
6000000.00053
6000000.00001
5999999.99976
5999999.99962
6000000.00022
6000000.00037
5999999.99979
6000000.00027
5999999.99983
6000000.00039
5999999.9999
5999999.99975
6000000.00019
5999999.99992
6000000.00042
5999999.99989
6000000.00001
5999999.99947
6000000.00034
6000000.00039
6000000.00023
6000000.00056
5999999.99989
6000000.00048
6000000.00047
5999999.99976
6000000.0002
5999999.99979
6000000.0003
6000000.00007
5999999.99972
6000000.00051
6000000.00021
6000000.00042
6000000.00034
5999999.99956
5999999.99971
5999999.99969
6000000.00008
6000000.00006
6000000.00031
6000000.00045
5999999.9997
5999999.99995
6000000.00027
6000000.00001
6000000.00033
6000000.00017
6000000.00019
6000000.00045
5999999.99966
6000000.00051
6000000.00064
6000000.0009
6000000.00094
6000000.00105
6000000.00064
6000000.00096
6000000.0008
6000000.00125
6000000.00071
6000000.00079
6000000.00079
6000000.00083
6000000.00072
6000000.00079
6000000.00084
6000000.00093
6000000.00073
6000000.00088
6000000.00105
6000000.00087
6000000.001
6000000.00112
6000000.00068
6000000.001
6000000.00091
6000000.00084
6000000.0007
6000000.00056
6000000.00093
6000000.00086
6000000.00081
6000000.0009
6000000.00083
6000000.00117
6000000.00069
6000000.00094
6000000.00064
6000000.00079
6000000.00056
6000000.00078
6000000.00095
6000000.00094
6000000.00098
6000000.00087
6000000.00086
6000000.00091
6000000.00072
6000000.00094
6000000.00109
6000000.0011
6000000.00074
6000000.00081
6000000.00075
6000000.00093
6000000.00096
6000000.0009
6000000.00095
6000000.00098
6000000.00098
6000000.00089
6000000.00084
6000000.00114
6000000.0013
6000000.00085
5999999.99904
5999999.99878
5999999.99889
5999999.999
5999999.99881
5999999.99929
5999999.99887
5999999.99882
5999999.99871
5999999.99878
5999999.99894
5999999.99912
5999999.99909
5999999.9989
5999999.9987
5999999.99881
5999999.99878
5999999.99904
5999999.9989
5999999.99911
5999999.9989
5999999.99879
5999999.99913
5999999.99906
5999999.99883
5999999.99893
5999999.99936
5999999.99886
5999999.99897
5999999.99904
5999999.99902
5999999.99943
5999999.99909
5999999.99912
5999999.99888
5999999.99889
5999999.99916
5999999.99878
5999999.99864
5999999.99874
5999999.99903
5999999.99907
5999999.99885
5999999.99905
5999999.99899
5999999.99898
5999999.99938
5999999.9991
5999999.99884
5999999.99899
5999999.99888
5999999.99873
5999999.99888
5999999.99867
5999999.99898
5999999.99889
5999999.99901
5999999.99903
5999999.99895
5999999.99893
5999999.9989
5999999.99904
5999999.9989
5999999.99884
5999999.99952