/*--------------------------------*- C++ -*----------------------------------*\
  =========                 |
  \\      /  F ield         | OpenFOAM: The Open Source CFD Toolbox
   \\    /   O peration     | Website:  https://openfoam.org
    \\  /    A nd           | Version:  6
     \\/     M anipulation  |
\*---------------------------------------------------------------------------*/
FoamFile
{
    version     2.0;
    format      ascii;
    class       volVectorField;
    location    "4.55e-05";
    object      U;
}
// * * * * * * * * * * * * * * * * * * * * * * * * * * * * * * * * * * * * * //

dimensions      [0 1 -1 0 0 0 0];

internalField   nonuniform List<vector> 
8192
(
(-88.3220000001 0 -2.74599646595e-10)
(-88.3219999996 0 -5.96068272742e-11)
(-88.3220000001 0 -6.68926841e-11)
(-88.3220000002 0 -2.16276153184e-10)
(-88.3219999996 0 -6.00941898838e-11)
(-88.3219999998 0 2.11509094005e-11)
(-88.3220000002 0 -2.50232358735e-12)
(-88.322 0 6.79536446587e-11)
(-88.322 0 -2.26035257583e-10)
(-88.322 0 -5.42215297927e-10)
(-88.3219999999 0 -6.3984538598e-10)
(-88.322 0 3.32988630035e-10)
(-88.3220000001 0 6.23924310876e-10)
(-88.322 0 -6.69398375701e-10)
(-88.3219999999 0 -5.96493871958e-10)
(-88.3219999999 0 3.18717729914e-10)
(-88.3219999999 0 2.21423807258e-10)
(-88.3219999999 0 5.52102842474e-10)
(-88.3220000001 0 -4.06542744209e-10)
(-88.322 0 -4.96380062708e-10)
(-88.3219999997 0 2.55777311353e-10)
(-88.3220000003 0 3.54191539249e-10)
(-88.3220000002 0 -5.09788996636e-10)
(-88.3219999999 0 -5.18374500105e-10)
(-88.322 0 1.43548444067e-10)
(-88.3219999999 0 1.44101266592e-10)
(-88.3219999999 0 1.84228213537e-10)
(-88.3219999999 0 1.52435244902e-10)
(-88.3220000002 0 2.5552050963e-10)
(-88.3220000001 0 -1.26985736093e-10)
(-88.3219999999 0 1.85687186352e-10)
(-88.3219999997 0 -2.26726003903e-11)
(-88.3219999991 0 1.04015279295e-10)
(-88.3220000016 0 4.80335295489e-10)
(-88.3220000022 0 -7.16215730186e-10)
(-88.3219999989 0 -5.75023978142e-10)
(-88.3219999997 0 -2.3634526431e-11)
(-88.3219999996 0 -5.15642775918e-10)
(-88.3219999987 0 1.72603246865e-10)
(-88.3220000005 0 1.43080919694e-10)
(-88.3220000001 0 -2.88793149626e-11)
(-88.3219999999 0 4.03307219015e-11)
(-88.3220000001 0 -1.20834405179e-11)
(-88.322 0 -1.41383298624e-11)
(-88.322 0 -5.14441151331e-11)
(-88.322 0 -3.01367588679e-11)
(-88.322 0 -1.65030134469e-11)
(-88.322 0 -1.50885218803e-11)
(-88.322 0 1.53113033681e-11)
(-88.3219999999 0 -6.98967220429e-11)
(-88.3219999999 0 8.75359543592e-11)
(-88.3220000005 0 -3.65232747784e-11)
(-88.3219999995 0 -1.79413634971e-10)
(-88.3219999994 0 2.86993375164e-10)
(-88.3220000011 0 1.60986953963e-10)
(-88.3220000005 0 -2.15624699996e-10)
(-88.3219999999 0 -4.03280631531e-11)
(-88.3219999998 0 -1.51533250697e-10)
(-88.3220000001 0 -3.56927635091e-11)
(-88.3219999993 0 -2.59816040789e-10)
(-88.3219999986 0 3.04553413553e-10)
(-88.3219999998 0 3.66732170814e-10)
(-88.3220000008 0 3.44448676024e-10)
(-88.3220000013 0 1.64030617851e-11)
(-88.322 0 -2.60925075645e-10)
(-88.3219999999 0 -7.48303571319e-11)
(-88.3220000001 0 9.08149146526e-11)
(-88.3219999998 0 6.16664449869e-12)
(-88.322 0 1.85354841774e-10)
(-88.3220000001 0 -1.05517298502e-10)
(-88.3219999996 0 3.35504629201e-11)
(-88.3220000005 0 5.2139774058e-12)
(-88.3220000012 0 -2.31503736842e-12)
(-88.3220000007 0 -4.86855874193e-11)
(-88.3219999983 0 5.34147448468e-11)
(-88.3219999975 0 -1.9595270788e-10)
(-88.3220000018 0 -2.02126593553e-11)
(-88.3220000023 0 -1.58646896635e-10)
(-88.3219999982 0 -2.6634173092e-10)
(-88.3219999985 0 2.54049441656e-10)
(-88.3219999997 0 1.76254268483e-10)
(-88.3220000014 0 1.40541075067e-10)
(-88.322000002 0 -2.93736383816e-10)
(-88.3219999988 0 -1.72587228224e-10)
(-88.3219999986 0 -3.64141285293e-11)
(-88.3220000013 0 1.91483838298e-11)
(-88.3220000015 0 1.76135500356e-10)
(-88.3219999989 0 -6.37311347953e-11)
(-88.3219999987 0 3.96068983575e-10)
(-88.322 0 -2.11253531795e-10)
(-88.3220000001 0 3.03786567055e-10)
(-88.3219999999 0 2.67000164169e-10)
(-88.3220000004 0 -3.22679974605e-11)
(-88.322 0 3.67347253462e-11)
(-88.3219999999 0 5.18418784129e-11)
(-88.3220000004 0 7.44344506292e-12)
(-88.3219999999 0 -1.88693982313e-10)
(-88.3220000002 0 -4.15239571849e-10)
(-88.322 0 4.80787843138e-10)
(-88.3219999996 0 5.70204893186e-10)
(-88.3220000001 0 -2.91535396931e-12)
(-88.322 0 2.88879794468e-10)
(-88.322 0 -1.74342396388e-10)
(-88.322 0 -1.73037982329e-10)
(-88.322 0 9.74709884635e-11)
(-88.322 0 -5.93682145848e-11)
(-88.322 0 4.21832252258e-11)
(-88.322 0 -1.57091434765e-10)
(-88.322 0 -3.78597630007e-10)
(-88.322 0 -3.08599868752e-10)
(-88.322 0 -3.02626979034e-10)
(-88.322 0 -3.42325840114e-10)
(-88.322 0 -3.39711612165e-10)
(-88.322 0 -1.02902166113e-10)
(-88.322 0 2.85398542249e-10)
(-88.3220000001 0 -7.06669007268e-11)
(-88.3219999999 0 4.78359009065e-11)
(-88.322 0 -8.55285574904e-11)
(-88.3220000001 0 -2.51949925876e-10)
(-88.322 0 4.01190810171e-10)
(-88.322 0 -1.46548761211e-10)
(-88.3220000001 0 -1.85168876179e-10)
(-88.322 0 -3.84768631481e-10)
(-88.3219999999 0 7.62684864167e-10)
(-88.322 0 2.85902380046e-10)
(-88.3220000001 0 -7.71068196433e-10)
(-88.3220000001 0 -9.99050367086e-10)
(-88.322 0 -4.1555284409e-10)
(-88.3219999994 0 5.56242116761e-11)
(-88.321999999 0 7.19142973561e-11)
(-88.322 0 -2.17487301314e-11)
(-88.322 0 1.5777199229e-10)
(-88.3219999999 0 -1.15288692744e-10)
(-88.322 0 1.12388078474e-10)
(-88.322 0 -2.92199087548e-11)
(-88.322 0 -6.76317911092e-11)
(-88.3220000001 0 1.98724401837e-10)
(-88.3219999999 0 5.07885991491e-10)
(-88.3220000002 0 5.98154899106e-10)
(-88.3220000001 0 -2.57519197911e-10)
(-88.322 0 -5.53707364822e-10)
(-88.3220000005 0 5.11921089235e-10)
(-88.321999999 0 5.37054561543e-10)
(-88.321999999 0 -3.32912839052e-10)
(-88.3220000001 0 -2.28319801773e-10)
(-88.3220000008 0 -5.05160432032e-10)
(-88.3220000008 0 4.30856608129e-10)
(-88.3219999995 0 4.64117462255e-10)
(-88.3219999994 0 -2.27623824055e-10)
(-88.3219999998 0 -2.21891529325e-10)
(-88.3220000004 0 4.93018514668e-10)
(-88.3219999995 0 5.12053211603e-10)
(-88.3220000003 0 -7.61747843378e-11)
(-88.322 0 -1.32792513132e-10)
(-88.321999999 0 -7.99976594655e-11)
(-88.3220000007 0 6.81728080998e-11)
(-88.3220000007 0 -3.40394061376e-11)
(-88.322 0 2.31036002827e-11)
(-88.322 0 8.80004411568e-11)
(-88.3220000003 0 -1.53087116154e-11)
(-88.322 0 -4.24420551387e-10)
(-88.322 0 3.98228673484e-10)
(-88.3220000001 0 5.60277435708e-10)
(-88.322 0 -3.33704790096e-10)
(-88.3220000003 0 -6.16936031183e-10)
(-88.322 0 7.57254319588e-10)
(-88.3219999997 0 3.72507710666e-10)
(-88.322 0 -3.5715986127e-10)
(-88.322 0 -4.0295420233e-10)
(-88.322 0 1.51471266085e-10)
(-88.3220000003 0 -2.54785360539e-10)
(-88.322000001 0 -5.73937036365e-11)
(-88.3220000003 0 -3.01390252119e-10)
(-88.3219999998 0 5.46051782486e-11)
(-88.322 0 -5.28714417657e-10)
(-88.3219999999 0 -5.75917828437e-10)
(-88.3219999995 0 4.33839434706e-10)
(-88.3219999987 0 1.68558179473e-11)
(-88.3219999999 0 -3.3412453839e-10)
(-88.3220000009 0 1.57197284302e-10)
(-88.3219999996 0 -4.09702686653e-10)
(-88.322 0 3.73081254699e-10)
(-88.322 0 4.47520025605e-11)
(-88.3220000003 0 -3.21550729963e-10)
(-88.3220000011 0 -3.3079902149e-10)
(-88.3220000004 0 -3.48253962632e-10)
(-88.3219999983 0 -1.58437597083e-10)
(-88.321999998 0 -1.59572771499e-10)
(-88.3220000018 0 -1.42245742818e-10)
(-88.3220000024 0 7.68931122534e-11)
(-88.322 0 4.60489533785e-11)
(-88.3219999999 0 6.30365779096e-11)
(-88.322 0 5.7266484003e-10)
(-88.322 0 1.67677210982e-10)
(-88.322 0 -1.7691342504e-11)
(-88.322 0 1.39958171404e-10)
(-88.322 0 -1.59440880229e-10)
(-88.322 0 3.03726820399e-11)
(-88.322 0 1.02872282104e-11)
(-88.322 0 3.2931656087e-11)
(-88.322 0 1.67988881194e-11)
(-88.322 0 8.30688469882e-11)
(-88.3219999999 0 -2.17393355925e-11)
(-88.3219999998 0 1.46773673857e-10)
(-88.3220000004 0 -4.91607413914e-12)
(-88.3220000001 0 3.1590835759e-10)
(-88.3219999999 0 3.05233315141e-10)
(-88.322 0 -2.4263910455e-10)
(-88.322 0 -1.69105191161e-10)
(-88.322 0 -2.47060443831e-10)
(-88.322 0 4.20801062134e-10)
(-88.322 0 4.00194128259e-10)
(-88.322 0 -4.55492970525e-10)
(-88.3219999999 0 -5.1077940787e-10)
(-88.322 0 3.00220343476e-10)
(-88.322 0 4.53499005812e-10)
(-88.322 0 -1.78813465817e-10)
(-88.322 0 5.32914958314e-10)
(-88.3219999996 0 -1.92845700179e-10)
(-88.3219999998 0 2.12284968447e-11)
(-88.3220000005 0 -1.0561869744e-10)
(-88.3219999998 0 -2.23602996569e-10)
(-88.3219999999 0 6.65666504742e-11)
(-88.3220000013 0 -7.59571156896e-11)
(-88.321999999 0 4.66608733923e-12)
(-88.3219999984 0 -6.72513608809e-11)
(-88.3220000015 0 3.94936122203e-11)
(-88.3220000019 0 8.37319745422e-11)
(-88.321999998 0 -6.14267410738e-11)
(-88.3219999981 0 3.25698801362e-10)
(-88.3220000021 0 -1.33022027212e-11)
(-88.3220000015 0 2.97740851193e-11)
(-88.3219999989 0 -5.20440737024e-11)
(-88.3219999998 0 -7.44543818318e-12)
(-88.3220000004 0 -5.92894019296e-11)
(-88.3220000001 0 1.59078376605e-10)
(-88.3219999998 0 4.08019704694e-10)
(-88.3220000005 0 3.06442088029e-10)
(-88.3220000012 0 3.1789957256e-10)
(-88.3219999981 0 2.4001784921e-10)
(-88.321999999 0 4.63632939246e-10)
(-88.3220000015 0 1.97616611137e-10)
(-88.3219999998 0 -3.31358000275e-10)
(-88.3220000003 0 1.05919128098e-10)
(-88.3219999994 0 -1.61299529463e-10)
(-88.3219999991 0 2.47170433924e-10)
(-88.3220000014 0 5.13353172522e-10)
(-88.3220000007 0 -5.00716820182e-10)
(-88.322 0 -1.26481818221e-10)
(-88.3219999998 0 4.0721833521e-10)
(-88.3219999997 0 7.70921219567e-11)
(-88.3219999998 0 -4.16552345025e-10)
(-88.3219999996 0 -9.2769707062e-10)
(-88.3219999998 0 8.00547241314e-10)
(-88.3220000001 0 8.63773165276e-10)
(-88.322 0 6.58051186814e-10)
(-88.3220000004 0 -2.89655729072e-10)
(-88.3220000001 0 -9.49037272814e-11)
(-88.322 0 1.76393561264e-10)
(-88.3220000003 0 -2.82534795154e-11)
(-88.322 0 -4.50483967316e-11)
(-88.3219999997 0 -1.08126342757e-11)
(-88.322 0 7.88081170533e-12)
(-88.322 0 2.38955043731e-11)
(-88.322 0 1.96220979597e-11)
(-88.322 0 -3.0170734879e-12)
(-88.322 0 5.21067232831e-11)
(-88.3220000001 0 -2.12761517847e-10)
(-88.3219999997 0 -2.26461743738e-10)
(-88.3219999999 0 1.92275072809e-11)
(-88.3220000001 0 -2.13877648658e-11)
(-88.322 0 2.81072814781e-11)
(-88.3220000001 0 1.19695758094e-10)
(-88.3219999996 0 1.23855445242e-10)
(-88.3219999995 0 -1.66465479369e-11)
(-88.3220000012 0 4.64863864544e-12)
(-88.3220000011 0 2.19688822285e-11)
(-88.3219999983 0 1.49610808346e-11)
(-88.3219999985 0 5.93750511511e-11)
(-88.3220000004 0 -1.21937239519e-10)
(-88.3220000001 0 1.02456180838e-10)
(-88.3220000001 0 3.40665069092e-12)
(-88.3219999999 0 2.22562148346e-10)
(-88.3220000004 0 2.63710473564e-10)
(-88.322000001 0 3.23412184074e-10)
(-88.3219999995 0 -1.78028957029e-11)
(-88.3219999996 0 1.55864727933e-10)
(-88.3220000003 0 3.52946346325e-10)
(-88.322 0 -2.65778939875e-11)
(-88.322 0 -4.90511759866e-10)
(-88.3219999999 0 -7.02127807518e-10)
(-88.3220000001 0 1.32612202741e-10)
(-88.3219999998 0 7.72633925009e-10)
(-88.3219999999 0 -9.78576134453e-10)
(-88.3220000002 0 -2.76006600212e-10)
(-88.322 0 1.88360839151e-10)
(-88.322 0 3.53773642462e-10)
(-88.322 0 -1.30038070177e-10)
(-88.322 0 2.25199709127e-10)
(-88.322 0 6.10934964812e-11)
(-88.322 0 2.76869514412e-10)
(-88.322 0 -4.28181486506e-11)
(-88.3220000001 0 5.26460057637e-10)
(-88.3219999998 0 5.01980541353e-10)
(-88.3219999997 0 -3.79775540772e-10)
(-88.3220000003 0 -1.025597991e-10)
(-88.322 0 2.55144557759e-10)
(-88.3220000006 0 -1.81795375721e-11)
(-88.3219999994 0 3.29767262562e-10)
(-88.3219999987 0 -3.64881724501e-10)
(-88.3220000014 0 -5.492393165e-11)
(-88.3220000015 0 -2.1967170424e-10)
(-88.3219999993 0 1.15184895231e-10)
(-88.322 0 1.19341236078e-10)
(-88.3219999998 0 -3.0281113283e-10)
(-88.322 0 7.07594808169e-10)
(-88.3219999993 0 5.72258929091e-10)
(-88.3219999988 0 3.61466870419e-10)
(-88.3220000002 0 1.54264154188e-10)
(-88.3220000003 0 6.56436508966e-12)
(-88.3220000002 0 -8.70135500333e-11)
(-88.3219999991 0 -1.83232048491e-10)
(-88.322 0 3.499285707e-10)
(-88.3220000004 0 5.6428198137e-10)
(-88.322 0 -3.35796080937e-11)
(-88.3219999999 0 4.1657720963e-10)
(-88.322 0 3.32048228977e-10)
(-88.322 0 -3.84177792505e-10)
(-88.322 0 7.36161487504e-12)
(-88.3219999999 0 8.53321828234e-11)
(-88.3220000002 0 -3.11838724063e-11)
(-88.3220000003 0 1.45890199146e-10)
(-88.3219999999 0 1.57216119675e-10)
(-88.3219999999 0 -4.37883835434e-10)
(-88.3219999999 0 4.72658056533e-10)
(-88.3219999998 0 3.82904476279e-10)
(-88.3219999998 0 4.69518341409e-10)
(-88.3220000003 0 1.12406739582e-10)
(-88.3220000002 0 -5.89005788792e-10)
(-88.322 0 -2.31359533525e-10)
(-88.3219999999 0 8.27348613563e-10)
(-88.3219999999 0 1.01020515356e-09)
(-88.3220000003 0 -5.73140946929e-10)
(-88.3219999999 0 -5.76181368397e-10)
(-88.3219999998 0 -4.01677253566e-10)
(-88.3219999998 0 -3.41380983381e-11)
(-88.3219999992 0 1.10503260856e-10)
(-88.3219999996 0 -3.82225863415e-10)
(-88.3220000011 0 4.65644930774e-10)
(-88.3220000001 0 6.02293101919e-10)
(-88.3219999992 0 -7.67626493473e-11)
(-88.3220000018 0 -3.46343405795e-10)
(-88.3220000007 0 8.52675770058e-11)
(-88.3219999995 0 1.3156044486e-10)
(-88.3220000002 0 1.05522468834e-10)
(-88.321999999 0 -9.78280444583e-11)
(-88.3220000003 0 -7.05371768423e-12)
(-88.3220000001 0 -5.2003332449e-11)
(-88.3219999999 0 6.18541880367e-12)
(-88.3220000002 0 4.13884120002e-11)
(-88.3219999997 0 3.58908524928e-11)
(-88.322 0 -1.59440779453e-11)
(-88.322 0 9.37390364881e-12)
(-88.322 0 7.08984828261e-12)
(-88.322 0 6.56696292828e-12)
(-88.322 0 1.31372476923e-11)
(-88.3220000001 0 -5.87426703615e-11)
(-88.3219999999 0 2.53085034613e-10)
(-88.3220000001 0 -1.70283575035e-10)
(-88.3220000001 0 -7.00477619266e-11)
(-88.3219999996 0 -1.22681710225e-11)
(-88.3220000002 0 5.24930933521e-11)
(-88.322 0 2.45796090153e-10)
(-88.3219999999 0 -4.0913113433e-10)
(-88.3220000011 0 -4.21130091745e-10)
(-88.3220000002 0 2.93721849151e-10)
(-88.3219999994 0 2.97846355777e-10)
(-88.3220000006 0 3.76047676189e-11)
(-88.3219999985 0 3.65447467399e-10)
(-88.3219999981 0 -7.92536895325e-11)
(-88.3220000002 0 4.04455209451e-10)
(-88.3220000006 0 -2.64976622574e-10)
(-88.3220000008 0 -7.53211709581e-11)
(-88.3220000009 0 -2.29803957498e-10)
(-88.3220000003 0 4.30583494591e-10)
(-88.3219999992 0 2.20279552582e-11)
(-88.3219999986 0 -2.19584873657e-10)
(-88.3220000012 0 3.86654190755e-11)
(-88.3220000003 0 2.27519170183e-11)
(-88.3219999989 0 4.22629786429e-11)
(-88.3220000017 0 -7.13202545393e-11)
(-88.3220000007 0 5.51116394146e-11)
(-88.3219999991 0 -1.43931635325e-10)
(-88.3220000001 0 -1.62724928145e-10)
(-88.3219999999 0 3.98838753477e-10)
(-88.3219999998 0 -3.74402195792e-10)
(-88.322000001 0 -3.53051674667e-10)
(-88.3219999993 0 -6.1234459168e-11)
(-88.3219999985 0 -1.17919201479e-10)
(-88.3219999999 0 -5.16032876477e-12)
(-88.3220000007 0 -1.9724799002e-10)
(-88.3220000018 0 -1.0097801255e-10)
(-88.3220000001 0 2.49727393209e-11)
(-88.3219999984 0 -1.323657334e-12)
(-88.3219999987 0 1.78408948398e-12)
(-88.3220000011 0 -2.245488573e-11)
(-88.3220000017 0 -2.29053013729e-13)
(-88.322 0 2.45470223922e-11)
(-88.321999999 0 -7.02044499568e-11)
(-88.3219999991 0 4.28005463929e-11)
(-88.3220000006 0 -2.75518204251e-10)
(-88.3219999997 0 -3.12343885871e-10)
(-88.3219999991 0 -5.22151775666e-10)
(-88.3220000007 0 2.42799270332e-10)
(-88.3220000016 0 -4.05181113332e-10)
(-88.3220000001 0 -3.55880735148e-10)
(-88.321999999 0 7.4455226673e-10)
(-88.3219999999 0 1.84992885876e-10)
(-88.3220000004 0 -1.22130301007e-10)
(-88.3220000004 0 -3.89275077241e-10)
(-88.3219999997 0 -1.37517601707e-10)
(-88.3219999999 0 5.78775827081e-10)
(-88.322 0 -1.3039733891e-10)
(-88.322 0 -9.76852249025e-11)
(-88.322 0 3.63029744816e-11)
(-88.322 0 6.95916980429e-11)
(-88.322 0 -1.53120205979e-10)
(-88.322 0 5.02899977949e-11)
(-88.322 0 3.00120219244e-11)
(-88.3220000001 0 6.37240815285e-12)
(-88.3219999997 0 -7.97296524387e-12)
(-88.322 0 -2.35520994928e-11)
(-88.3220000004 0 2.54366563733e-11)
(-88.322 0 -2.67882226609e-11)
(-88.3219999999 0 9.27244852775e-11)
(-88.3220000001 0 -3.43406127974e-11)
(-88.3220000002 0 6.53392424459e-11)
(-88.3219999999 0 -7.12082690681e-11)
(-88.322 0 4.55973910022e-11)
(-88.3220000001 0 3.23205836842e-10)
(-88.3219999999 0 4.3115385913e-11)
(-88.3219999999 0 8.04653356132e-11)
(-88.3220000001 0 4.57804310336e-10)
(-88.3219999999 0 -4.74190449041e-10)
(-88.3219999998 0 -4.05229005617e-10)
(-88.3219999998 0 7.08474268786e-11)
(-88.3220000001 0 2.21591874949e-10)
(-88.3220000004 0 -9.47496728025e-11)
(-88.322 0 7.97785645035e-11)
(-88.3220000004 0 1.77296348785e-10)
(-88.3219999999 0 -3.32234519671e-10)
(-88.3219999999 0 -5.84795515984e-10)
(-88.322 0 2.00281289062e-10)
(-88.3220000001 0 -4.2913201736e-10)
(-88.3219999999 0 -3.48408339312e-10)
(-88.3220000001 0 3.8086548579e-10)
(-88.3220000004 0 -1.53826429984e-11)
(-88.3219999987 0 -1.13062699921e-10)
(-88.3220000007 0 6.08731641921e-11)
(-88.3220000019 0 -1.44489957609e-10)
(-88.3219999993 0 -1.04235451529e-10)
(-88.3219999993 0 3.33757053187e-10)
(-88.3219999997 0 -4.72565678578e-10)
(-88.3219999999 0 -3.4761709511e-10)
(-88.3219999999 0 -4.54937592473e-10)
(-88.3219999999 0 -1.85538487081e-11)
(-88.3220000001 0 4.09264367863e-10)
(-88.322 0 2.89994080357e-11)
(-88.322 0 -3.62637438105e-10)
(-88.3219999999 0 -6.28672741505e-10)
(-88.3220000003 0 1.69216709827e-10)
(-88.322 0 2.0539559615e-10)
(-88.3219999997 0 1.93733350544e-10)
(-88.3220000002 0 -2.66602623425e-10)
(-88.3219999999 0 -2.69128375257e-10)
(-88.3220000001 0 4.52832863642e-11)
(-88.322 0 -4.48465943828e-10)
(-88.322 0 -4.08861056366e-10)
(-88.3220000002 0 -1.02614105652e-10)
(-88.3219999995 0 3.95176723966e-10)
(-88.3219999997 0 -6.68462532042e-11)
(-88.3220000013 0 -7.42992664113e-11)
(-88.3220000014 0 -1.02363655624e-10)
(-88.3219999991 0 -4.42572322259e-11)
(-88.3219999982 0 1.92304949664e-10)
(-88.322 0 -3.50734672879e-11)
(-88.3220000012 0 5.96946725791e-11)
(-88.322 0 -2.80186633709e-11)
(-88.3219999993 0 -1.63006594191e-11)
(-88.3220000004 0 3.32197786489e-11)
(-88.322 0 -1.30685177869e-12)
(-88.3219999996 0 -1.03150184161e-11)
(-88.3220000001 0 -3.23609036649e-11)
(-88.322 0 -2.35117204111e-11)
(-88.3220000001 0 3.92307943448e-11)
(-88.3219999999 0 -1.64409699886e-10)
(-88.3220000001 0 3.5693048711e-11)
(-88.322 0 8.95141764143e-11)
(-88.3219999996 0 -1.30215306862e-10)
(-88.3220000001 0 -1.27361632636e-10)
(-88.322 0 8.16472380758e-11)
(-88.3219999999 0 5.17266490823e-10)
(-88.3220000004 0 5.24309064837e-10)
(-88.3220000002 0 -2.92132920978e-10)
(-88.3219999999 0 -3.12883687625e-10)
(-88.3219999999 0 -1.82261062606e-10)
(-88.3219999996 0 -4.28632426352e-10)
(-88.3219999998 0 1.50459661836e-10)
(-88.3219999992 0 -3.95778392713e-10)
(-88.3219999994 0 3.44864500085e-10)
(-88.3220000012 0 -1.44626546947e-10)
(-88.3220000004 0 1.23725292401e-10)
(-88.3220000002 0 -2.50385280051e-10)
(-88.3220000001 0 -5.41202498766e-12)
(-88.322 0 -4.01080786392e-11)
(-88.322 0 -7.31109940936e-12)
(-88.322 0 -6.70406074632e-11)
(-88.322 0 7.39607708437e-11)
(-88.322 0 3.39403088585e-11)
(-88.322 0 -8.30034560439e-11)
(-88.3220000001 0 1.37893717022e-10)
(-88.322 0 1.50115562722e-10)
(-88.322 0 -4.50647291773e-10)
(-88.322 0 5.25762562074e-10)
(-88.322 0 5.32470609823e-10)
(-88.322 0 8.98901655464e-11)
(-88.322 0 1.18234036859e-10)
(-88.322 0 -1.93243886228e-11)
(-88.322 0 7.1955282692e-11)
(-88.322 0 -1.38616414427e-11)
(-88.322 0 5.32860694669e-12)
(-88.322 0 3.75758505315e-12)
(-88.322 0 -2.10282289972e-11)
(-88.322 0 1.60591960275e-11)
(-88.322 0 -4.27997001025e-12)
(-88.322 0 1.18118101939e-10)
(-88.322 0 -4.5313989751e-11)
(-88.322 0 -4.14544662203e-11)
(-88.322 0 5.67085595456e-11)
(-88.322 0 -2.56624697902e-11)
(-88.322 0 2.91915240568e-11)
(-88.322 0 -1.53832373119e-10)
(-88.322 0 4.01974834746e-11)
(-88.322 0 -6.16599513964e-11)
(-88.322 0 -5.59902337001e-11)
(-88.322 0 2.11927609278e-10)
(-88.3220000003 0 -1.13118671861e-10)
(-88.3219999999 0 1.38990196466e-10)
(-88.3219999997 0 -1.62377466359e-10)
(-88.3220000001 0 -7.04277070478e-10)
(-88.322 0 1.44612687977e-10)
(-88.322 0 2.83199506044e-10)
(-88.322 0 -1.20088997757e-11)
(-88.322 0 -6.94001512024e-11)
(-88.322 0 1.59606226223e-10)
(-88.322 0 -7.40802746937e-11)
(-88.322 0 -2.6511583547e-11)
(-88.322 0 -1.88392765774e-11)
(-88.322 0 -5.00168885609e-11)
(-88.322 0 1.16048663531e-10)
(-88.3219999999 0 -1.16321514851e-11)
(-88.3220000002 0 1.68068002104e-10)
(-88.3220000003 0 -4.35640879918e-11)
(-88.3219999996 0 -6.13966361346e-11)
(-88.321999999 0 -1.35680550759e-10)
(-88.321999999 0 6.73452161279e-11)
(-88.3220000017 0 1.14868772161e-10)
(-88.3220000019 0 -2.42471150338e-10)
(-88.3219999995 0 -1.00160420148e-10)
(-88.3220000001 0 -7.06825725315e-11)
(-88.3219999994 0 -9.22738848319e-11)
(-88.3219999998 0 3.85882954255e-11)
(-88.3219999994 0 5.81520990858e-11)
(-88.3219999993 0 -9.65077806228e-10)
(-88.3220000005 0 -7.6453283691e-10)
(-88.322 0 -2.27218351098e-10)
(-88.3219999997 0 1.01107584487e-10)
(-88.322 0 1.16731024292e-10)
(-88.3219999999 0 -1.38841322744e-10)
(-88.322 0 -4.41984987871e-11)
(-88.3219999998 0 5.58730219096e-11)
(-88.3219999999 0 5.0034651627e-11)
(-88.3220000002 0 -1.05863595016e-10)
(-88.322 0 -1.17650301585e-10)
(-88.322 0 -3.50187929173e-11)
(-88.322 0 -5.19814816139e-11)
(-88.322 0 -2.1518166046e-12)
(-88.3219999999 0 -1.90170805608e-11)
(-88.3220000001 0 -5.05925718434e-12)
(-88.3220000001 0 -2.16655653001e-11)
(-88.3219999999 0 -2.76146878451e-11)
(-88.322 0 -3.48194045758e-11)
(-88.322 0 -2.80761635086e-11)
(-88.322 0 -7.59457725376e-12)
(-88.322 0 4.24824677467e-11)
(-88.322 0 -1.61158648828e-10)
(-88.3219999999 0 -6.5161014941e-11)
(-88.3219999999 0 4.35923990134e-10)
(-88.322 0 3.14032121249e-10)
(-88.3220000001 0 -4.38833827595e-10)
(-88.3220000001 0 -3.40319401227e-10)
(-88.322 0 -1.18786601565e-10)
(-88.3219999999 0 5.76056528138e-11)
(-88.3220000001 0 -1.44652570425e-10)
(-88.3220000002 0 1.06196299319e-10)
(-88.322 0 -1.41795821739e-10)
(-88.3220000001 0 -3.94307556495e-10)
(-88.3219999997 0 -2.95706870793e-10)
(-88.3219999991 0 1.92444379355e-10)
(-88.3220000013 0 -3.94700921584e-10)
(-88.3220000015 0 -4.39046545433e-10)
(-88.3219999992 0 -3.99523258755e-10)
(-88.3219999999 0 4.24195604681e-10)
(-88.3219999995 0 3.29070386424e-10)
(-88.3219999992 0 -3.58381516518e-10)
(-88.3220000002 0 -2.43874731777e-10)
(-88.322 0 4.84163672354e-10)
(-88.322 0 1.01759964118e-10)
(-88.322 0 -3.12342343371e-10)
(-88.322 0 -5.14620781605e-10)
(-88.322 0 2.39061235773e-10)
(-88.3220000001 0 -2.3394280356e-10)
(-88.3219999999 0 -6.36391648365e-11)
(-88.3219999998 0 -4.9428811245e-10)
(-88.322 0 4.22577685557e-10)
(-88.3220000001 0 -1.01874170325e-10)
(-88.322 0 5.65140755297e-11)
(-88.3220000005 0 2.22718068091e-10)
(-88.3219999998 0 -3.60240554458e-10)
(-88.3219999994 0 -8.54482952639e-10)
(-88.322000001 0 -1.00526655289e-09)
(-88.3220000007 0 -3.61216294115e-10)
(-88.3219999996 0 9.09276915194e-10)
(-88.3219999998 0 5.35746410877e-10)
(-88.3219999994 0 -7.22791644592e-11)
(-88.3219999995 0 -6.19236027937e-10)
(-88.3220000012 0 6.65063553952e-10)
(-88.322000001 0 -2.42395410072e-11)
(-88.3219999996 0 -1.64861698959e-10)
(-88.3219999995 0 -1.78970421892e-11)
(-88.322 0 1.03786771958e-10)
(-88.3220000006 0 5.84380164373e-11)
(-88.3220000003 0 1.92250796769e-10)
(-88.3219999996 0 -2.0442068547e-10)
(-88.3219999999 0 1.50298041816e-10)
(-88.3220000004 0 -2.4027006559e-10)
(-88.3220000003 0 1.78327422231e-10)
(-88.3219999999 0 2.14866653922e-10)
(-88.322 0 -1.88797200201e-10)
(-88.3219999999 0 -3.88346978166e-10)
(-88.322 0 -1.42540150456e-10)
(-88.322 0 -4.34258407564e-10)
(-88.322 0 -4.31033403037e-10)
(-88.322 0 -1.73551339905e-10)
(-88.322 0 7.52918390999e-11)
(-88.322 0 3.14605871726e-11)
(-88.322 0 8.53964184694e-11)
(-88.3219999999 0 -3.09883606565e-10)
(-88.3220000003 0 -6.43577947691e-10)
(-88.3220000002 0 2.96367367357e-10)
(-88.3219999988 0 3.03367192506e-10)
(-88.3219999992 0 7.10618188374e-10)
(-88.3220000018 0 -4.22849769531e-10)
(-88.3220000013 0 -3.77105047965e-10)
(-88.3219999994 0 2.76204060736e-10)
(-88.3219999993 0 2.63412984222e-10)
(-88.322 0 2.63315580465e-10)
(-88.322 0 1.03234270089e-10)
(-88.3220000001 0 2.69072503432e-10)
(-88.3220000009 0 9.9670008672e-11)
(-88.3220000002 0 2.12128894011e-11)
(-88.3219999988 0 8.71233220931e-11)
(-88.3220000002 0 -1.19426645075e-10)
(-88.3220000012 0 -3.74089036621e-10)
(-88.3220000003 0 4.90338544424e-10)
(-88.3219999981 0 7.01961714693e-10)
(-88.3219999982 0 4.31051252106e-10)
(-88.3220000016 0 6.83661684425e-10)
(-88.3220000011 0 -4.26514687476e-10)
(-88.3219999984 0 -2.21809710427e-11)
(-88.3219999993 0 1.25264006377e-11)
(-88.3220000016 0 -5.07198938589e-11)
(-88.3220000012 0 5.06091279529e-11)
(-88.3219999989 0 -7.59063062716e-11)
(-88.3219999994 0 3.42871882906e-11)
(-88.3220000005 0 -1.03425643418e-10)
(-88.3220000005 0 -2.60351568277e-10)
(-88.3219999989 0 2.1214021505e-10)
(-88.3219999991 0 2.92373107313e-10)
(-88.322000001 0 3.76532798961e-10)
(-88.3219999995 0 -3.21087573291e-10)
(-88.3220000004 0 -3.3017382617e-10)
(-88.322000001 0 5.88188821463e-10)
(-88.3220000002 0 7.09567733617e-11)
(-88.3220000008 0 1.03006085571e-10)
(-88.3219999982 0 3.36064948463e-10)
(-88.3219999978 0 5.12926242706e-10)
(-88.322000002 0 5.82302926806e-10)
(-88.3220000016 0 -2.07460713433e-10)
(-88.3219999983 0 -3.15381402533e-10)
(-88.3219999982 0 -1.84033550176e-10)
(-88.3220000009 0 4.14241059978e-10)
(-88.3220000005 0 3.55701795814e-10)
(-88.3219999994 0 2.71685009611e-10)
(-88.322 0 -1.57585518118e-10)
(-88.3219999999 0 -1.95619542136e-10)
(-88.3220000003 0 1.12893065642e-10)
(-88.322 0 -2.37848228703e-11)
(-88.3219999999 0 -4.86968142704e-11)
(-88.3219999999 0 -9.03375317587e-11)
(-88.3219999993 0 9.59109223332e-11)
(-88.3220000007 0 7.91484127525e-11)
(-88.3220000012 0 3.11306948048e-11)
(-88.3219999999 0 -2.78570062779e-11)
(-88.322 0 -2.46968922611e-10)
(-88.3220000004 0 -3.28527647683e-11)
(-88.3219999997 0 -7.07196391869e-11)
(-88.3219999991 0 -8.62341092814e-11)
(-88.3219999995 0 6.1370097957e-11)
(-88.322 0 -8.39713471432e-11)
(-88.3220000007 0 -1.12547957171e-11)
(-88.3220000015 0 4.21635313301e-12)
(-88.3219999989 0 -6.47636513761e-11)
(-88.3219999981 0 1.79635391293e-10)
(-88.321999999 0 1.00494630347e-11)
(-88.3220000014 0 -3.15804001529e-10)
(-88.3220000022 0 -2.15097244919e-10)
(-88.3219999988 0 3.12865631829e-10)
(-88.3219999988 0 4.24786489481e-10)
(-88.322 0 1.23960790147e-10)
(-88.3220000001 0 -4.41391114802e-11)
(-88.3220000001 0 1.48959416791e-10)
(-88.3220000002 0 -7.76684468734e-11)
(-88.3220000004 0 1.52006958804e-10)
(-88.3220000001 0 3.94868614121e-10)
(-88.322 0 2.96204887308e-10)
(-88.3219999999 0 -1.93213817135e-10)
(-88.3220000002 0 4.76955320828e-10)
(-88.3219999995 0 2.87014235744e-10)
(-88.3219999992 0 5.75702986967e-10)
(-88.322 0 -4.75916654103e-10)
(-88.3220000011 0 -3.246879925e-10)
(-88.3220000005 0 4.9380654054e-10)
(-88.3219999994 0 2.23277625279e-10)
(-88.322 0 -4.84009521408e-10)
(-88.322 0 -9.47667464141e-11)
(-88.3220000001 0 2.99482283931e-10)
(-88.322 0 5.3299945619e-10)
(-88.322 0 -3.64209625082e-10)
(-88.3220000007 0 2.17508067327e-10)
(-88.3219999993 0 3.53641949556e-11)
(-88.3219999986 0 4.98548959719e-10)
(-88.3219999997 0 -4.44889553472e-10)
(-88.3220000014 0 2.33287922021e-11)
(-88.3220000015 0 1.19948294115e-10)
(-88.3219999986 0 -4.6311899367e-10)
(-88.321999999 0 1.06186291751e-10)
(-88.3220000003 0 6.92431292384e-10)
(-88.3220000005 0 6.58309104195e-10)
(-88.3219999999 0 3.88695996189e-10)
(-88.3219999992 0 -4.09009053688e-10)
(-88.3220000012 0 -5.53519334124e-10)
(-88.322000001 0 4.69906012718e-10)
(-88.3219999995 0 4.25818604841e-10)
(-88.3219999997 0 -3.40108245741e-10)
(-88.322 0 -4.71131005798e-10)
(-88.3219999999 0 1.17534585812e-10)
(-88.322 0 -1.61196086494e-10)
(-88.322 0 -2.99239683662e-11)
(-88.322 0 9.57807168705e-11)
(-88.322 0 -1.63318986111e-10)
(-88.322 0 1.77093313134e-10)
(-88.322 0 -8.14565522045e-11)
(-88.322 0 1.48843885161e-10)
(-88.322 0 -1.89853149542e-10)
(-88.322 0 -1.1144687648e-10)
(-88.3220000001 0 -1.72803801702e-10)
(-88.3220000004 0 1.33353805243e-11)
(-88.322 0 3.07065508529e-10)
(-88.3219999996 0 1.62407584946e-10)
(-88.3220000001 0 -1.16911809205e-10)
(-88.3219999998 0 -2.46157166168e-10)
(-88.322 0 1.07289585368e-10)
(-88.3220000001 0 1.47681854621e-10)
(-88.3219999998 0 -1.78758702244e-10)
(-88.322 0 3.39074441658e-10)
(-88.322 0 6.37320328006e-10)
(-88.3220000001 0 -2.80080651406e-10)
(-88.3219999998 0 -3.13925209097e-10)
(-88.3219999998 0 -7.29032371214e-10)
(-88.3220000005 0 3.50101226182e-10)
(-88.322 0 3.47588919209e-10)
(-88.3219999998 0 -2.95291578649e-10)
(-88.3220000001 0 -2.65718084782e-10)
(-88.322 0 -2.91743425262e-10)
(-88.322 0 -1.86425786753e-10)
(-88.322 0 -1.99093616036e-10)
(-88.322 0 -9.79599749646e-11)
(-88.322 0 9.12598856766e-11)
(-88.322 0 1.081692306e-10)
(-88.3219999998 0 -1.38439840077e-10)
(-88.3220000002 0 2.95250353089e-10)
(-88.3220000002 0 -2.88776091237e-10)
(-88.3219999997 0 -5.83554488738e-10)
(-88.322 0 -4.74850375578e-10)
(-88.3219999998 0 -9.39899701652e-11)
(-88.3220000001 0 -9.40237384142e-11)
(-88.3220000004 0 -4.26442956316e-10)
(-88.3219999999 0 2.27878156066e-10)
(-88.322 0 3.12959446145e-10)
(-88.322 0 -3.54817820424e-10)
(-88.3220000002 0 3.69902964953e-11)
(-88.3220000001 0 -4.75435736908e-10)
(-88.3219999998 0 -4.20706663019e-10)
(-88.322 0 9.31386856365e-11)
(-88.3219999999 0 -6.90730758695e-10)
(-88.322 0 -4.07169382099e-10)
(-88.3219999999 0 -4.19504684446e-10)
(-88.3220000006 0 2.13855757831e-10)
(-88.3220000005 0 2.89896519273e-10)
(-88.3219999988 0 -4.88306103514e-10)
(-88.3219999992 0 -8.3238472987e-11)
(-88.3220000013 0 -4.34561000619e-10)
(-88.3220000003 0 2.56143761604e-10)
(-88.3219999997 0 -4.25189940427e-10)
(-88.3220000003 0 -8.07768890158e-10)
(-88.3219999998 0 -2.08287372171e-10)
(-88.3219999999 0 6.70247102069e-11)
(-88.322 0 2.73386619295e-10)
(-88.322 0 3.31026869241e-11)