/*--------------------------------*- C++ -*----------------------------------*\
  =========                 |
  \\      /  F ield         | OpenFOAM: The Open Source CFD Toolbox
   \\    /   O peration     | Website:  https://openfoam.org
    \\  /    A nd           | Version:  6
     \\/     M anipulation  |
\*---------------------------------------------------------------------------*/
FoamFile
{
    version     2.0;
    format      ascii;
    class       volVectorField;
    location    "4.53e-05";
    object      U;
}
// * * * * * * * * * * * * * * * * * * * * * * * * * * * * * * * * * * * * * //

dimensions      [0 1 -1 0 0 0 0];

internalField   nonuniform List<vector> 
8192
(
(-88.3220000001 0 -2.74362490779e-10)
(-88.3219999996 0 -5.80901896565e-11)
(-88.3220000001 0 -6.68732250657e-11)
(-88.3220000002 0 -2.12021446458e-10)
(-88.3219999996 0 -5.9895973966e-11)
(-88.3219999998 0 2.17922823789e-11)
(-88.3220000002 0 -2.57771598343e-12)
(-88.322 0 6.53738673361e-11)
(-88.322 0 -2.23164282863e-10)
(-88.322 0 -5.39530911993e-10)
(-88.3219999999 0 -6.33423720224e-10)
(-88.322 0 3.30178641483e-10)
(-88.3220000001 0 6.20538139868e-10)
(-88.322 0 -6.62498597532e-10)
(-88.3219999999 0 -5.94254689462e-10)
(-88.3219999999 0 3.1553404476e-10)
(-88.3219999999 0 2.15788807417e-10)
(-88.3219999999 0 5.44660517047e-10)
(-88.3220000001 0 -4.05338284164e-10)
(-88.322 0 -4.90315350571e-10)
(-88.3219999998 0 2.5525708964e-10)
(-88.3220000002 0 3.51634306148e-10)
(-88.3220000002 0 -5.01879494424e-10)
(-88.3219999999 0 -5.14399814456e-10)
(-88.322 0 1.41651576832e-10)
(-88.3219999999 0 1.41112525203e-10)
(-88.3219999999 0 1.81521855103e-10)
(-88.3219999999 0 1.49659708388e-10)
(-88.3220000002 0 2.5129695503e-10)
(-88.3220000001 0 -1.24631313098e-10)
(-88.3219999999 0 1.83330963037e-10)
(-88.3219999997 0 -2.05893288885e-11)
(-88.3219999991 0 1.02513042071e-10)
(-88.3220000016 0 4.74929963291e-10)
(-88.3220000022 0 -7.05725562022e-10)
(-88.3219999989 0 -5.70370398287e-10)
(-88.3219999997 0 -2.4424726461e-11)
(-88.3219999996 0 -5.11843402052e-10)
(-88.3219999987 0 1.72709104117e-10)
(-88.3220000005 0 1.40713069531e-10)
(-88.3220000001 0 -2.71382183313e-11)
(-88.3219999999 0 3.88865986901e-11)
(-88.3220000001 0 -1.2119563871e-11)
(-88.322 0 -1.40380780376e-11)
(-88.322 0 -5.0971446681e-11)
(-88.322 0 -2.97479103366e-11)
(-88.322 0 -1.63061996387e-11)
(-88.322 0 -1.46415618761e-11)
(-88.322 0 1.43359277642e-11)
(-88.3219999999 0 -6.82049548098e-11)
(-88.3219999999 0 8.47557186467e-11)
(-88.3220000005 0 -3.48930081318e-11)
(-88.3219999996 0 -1.77096821372e-10)
(-88.3219999994 0 2.82959549301e-10)
(-88.3220000011 0 1.59277137803e-10)
(-88.3220000005 0 -2.157055117e-10)
(-88.3219999999 0 -4.08611500051e-11)
(-88.3219999998 0 -1.4967535507e-10)
(-88.3220000001 0 -3.54314334636e-11)
(-88.3219999993 0 -2.56090351777e-10)
(-88.3219999986 0 3.01782063701e-10)
(-88.3219999998 0 3.64808584927e-10)
(-88.3220000008 0 3.43165201113e-10)
(-88.3220000013 0 1.94127728097e-11)
(-88.322 0 -2.55628789268e-10)
(-88.3219999999 0 -7.36895140578e-11)
(-88.3220000001 0 8.84726710321e-11)
(-88.3219999998 0 5.84592300614e-12)
(-88.322 0 1.80717092366e-10)
(-88.3220000001 0 -1.04212468072e-10)
(-88.3219999996 0 3.24529609443e-11)
(-88.3220000005 0 5.07032859031e-12)
(-88.3220000012 0 -1.96932010351e-12)
(-88.3220000007 0 -4.76924541127e-11)
(-88.3219999983 0 5.20661126301e-11)
(-88.3219999975 0 -1.92060531596e-10)
(-88.3220000018 0 -1.98097975378e-11)
(-88.3220000023 0 -1.56655192366e-10)
(-88.3219999982 0 -2.63059477302e-10)
(-88.3219999985 0 2.50934553309e-10)
(-88.3219999997 0 1.71582239138e-10)
(-88.3220000014 0 1.39421090784e-10)
(-88.3220000019 0 -2.89983277967e-10)
(-88.3219999988 0 -1.70956269415e-10)
(-88.3219999986 0 -3.46385188868e-11)
(-88.3220000013 0 2.18923532589e-11)
(-88.3220000015 0 1.73610360237e-10)
(-88.3219999989 0 -6.31410059543e-11)
(-88.3219999987 0 3.92609583885e-10)
(-88.322 0 -2.12116405064e-10)
(-88.3220000001 0 3.02415541733e-10)
(-88.3219999999 0 2.64326499796e-10)
(-88.3220000004 0 -2.93883057787e-11)
(-88.322 0 3.79630947431e-11)
(-88.3219999999 0 5.02452285227e-11)
(-88.3220000004 0 6.3682259124e-12)
(-88.3219999999 0 -1.8539571222e-10)
(-88.3220000002 0 -4.10966086302e-10)
(-88.322 0 4.74061591017e-10)
(-88.3219999996 0 5.64489128784e-10)
(-88.3220000001 0 -3.47647059289e-12)
(-88.322 0 2.87435159474e-10)
(-88.322 0 -1.74540147289e-10)
(-88.322 0 -1.69690274252e-10)
(-88.322 0 9.37981783012e-11)
(-88.322 0 -5.74265152219e-11)
(-88.322 0 4.02771566287e-11)
(-88.322 0 -1.53563165533e-10)
(-88.322 0 -3.76947904138e-10)
(-88.322 0 -3.05906337066e-10)
(-88.322 0 -3.00528244995e-10)
(-88.322 0 -3.37783850718e-10)
(-88.322 0 -3.36868179804e-10)
(-88.322 0 -1.03747952952e-10)
(-88.322 0 2.83289579801e-10)
(-88.3220000001 0 -6.90054349068e-11)
(-88.3219999999 0 4.6849589958e-11)
(-88.322 0 -8.37885977149e-11)
(-88.3220000001 0 -2.49485881829e-10)
(-88.322 0 3.99869284277e-10)
(-88.322 0 -1.44251101778e-10)
(-88.3220000001 0 -1.86723979363e-10)
(-88.322 0 -3.84439182019e-10)
(-88.3219999999 0 7.53258741651e-10)
(-88.322 0 2.81660610066e-10)
(-88.3220000001 0 -7.68348250869e-10)
(-88.3220000001 0 -9.9104667098e-10)
(-88.322 0 -4.12555018515e-10)
(-88.3219999994 0 5.43451646316e-11)
(-88.321999999 0 6.98308764315e-11)
(-88.322 0 -2.10987665617e-11)
(-88.322 0 1.54504569173e-10)
(-88.3219999999 0 -1.1197507218e-10)
(-88.322 0 1.0981900521e-10)
(-88.322 0 -2.81463580027e-11)
(-88.322 0 -6.5055903674e-11)
(-88.3220000001 0 1.95946243648e-10)
(-88.3219999999 0 5.05462287947e-10)
(-88.3220000002 0 5.91861016713e-10)
(-88.3220000001 0 -2.57102579781e-10)
(-88.322 0 -5.52202287622e-10)
(-88.3220000004 0 5.09243417073e-10)
(-88.321999999 0 5.35144714091e-10)
(-88.321999999 0 -3.29283760388e-10)
(-88.3220000001 0 -2.22596914756e-10)
(-88.3220000008 0 -4.98970816026e-10)
(-88.3220000008 0 4.28797422313e-10)
(-88.3219999995 0 4.58869418602e-10)
(-88.3219999994 0 -2.28207300661e-10)
(-88.3219999998 0 -2.22264706428e-10)
(-88.3220000004 0 4.86261578262e-10)
(-88.3219999995 0 5.07738787391e-10)
(-88.3220000003 0 -7.53191044437e-11)
(-88.322 0 -1.3002899095e-10)
(-88.321999999 0 -7.92595556031e-11)
(-88.3220000006 0 6.61986256371e-11)
(-88.3220000006 0 -3.05511158012e-11)
(-88.322 0 2.08502361651e-11)
(-88.322 0 8.81628607017e-11)
(-88.3220000003 0 -1.57191489274e-11)
(-88.322 0 -4.20009544209e-10)
(-88.322 0 3.93661968155e-10)
(-88.3220000001 0 5.53665594922e-10)
(-88.322 0 -3.27065412784e-10)
(-88.3220000003 0 -6.09472495991e-10)
(-88.322 0 7.50531710544e-10)
(-88.3219999997 0 3.69627982288e-10)
(-88.322 0 -3.56372555791e-10)
(-88.322 0 -3.99273733869e-10)
(-88.322 0 1.4802764942e-10)
(-88.3220000003 0 -2.52413982565e-10)
(-88.3220000009 0 -5.69084912858e-11)
(-88.3220000003 0 -2.97456707344e-10)
(-88.3219999998 0 5.38792043609e-11)
(-88.322 0 -5.21690249944e-10)
(-88.3219999999 0 -5.74133289084e-10)
(-88.3219999995 0 4.28104564784e-10)
(-88.3219999987 0 1.62803638802e-11)
(-88.3219999999 0 -3.28564085502e-10)
(-88.3220000009 0 1.55139030027e-10)
(-88.3219999996 0 -4.06539878546e-10)
(-88.322 0 3.69754215154e-10)
(-88.322 0 4.22951922545e-11)
(-88.3220000003 0 -3.19307676587e-10)
(-88.3220000011 0 -3.27051325633e-10)
(-88.3220000004 0 -3.44173601616e-10)
(-88.3219999983 0 -1.57623831807e-10)
(-88.321999998 0 -1.57159919836e-10)
(-88.3220000018 0 -1.40967005779e-10)
(-88.3220000024 0 7.61174317407e-11)
(-88.322 0 4.5121514473e-11)
(-88.3219999999 0 6.16290676838e-11)
(-88.322 0 5.67555111537e-10)
(-88.322 0 1.65719607776e-10)
(-88.322 0 -1.53978163818e-11)
(-88.322 0 1.38004160275e-10)
(-88.322 0 -1.56255651447e-10)
(-88.322 0 2.982781073e-11)
(-88.322 0 9.9515415667e-12)
(-88.322 0 3.25084789707e-11)
(-88.322 0 1.60743350662e-11)
(-88.322 0 8.19793950279e-11)
(-88.3219999999 0 -2.05102884293e-11)
(-88.3219999998 0 1.44533811902e-10)
(-88.3220000004 0 -4.21364131515e-12)
(-88.3220000001 0 3.09242724198e-10)
(-88.3219999999 0 3.01334666438e-10)
(-88.322 0 -2.39228012763e-10)
(-88.322 0 -1.64625703805e-10)
(-88.322 0 -2.43333115778e-10)
(-88.322 0 4.13876515338e-10)
(-88.322 0 3.95958539097e-10)
(-88.322 0 -4.504166988e-10)
(-88.3219999999 0 -5.10700429513e-10)
(-88.322 0 2.9822933391e-10)
(-88.322 0 4.4864318663e-10)
(-88.322 0 -1.7670945653e-10)
(-88.322 0 5.29085848923e-10)
(-88.3219999997 0 -1.92352808171e-10)
(-88.3219999998 0 1.94987402606e-11)
(-88.3220000005 0 -1.05829386497e-10)
(-88.3219999998 0 -2.1946882281e-10)
(-88.3219999999 0 6.41136143187e-11)
(-88.3220000013 0 -7.47250049815e-11)
(-88.321999999 0 4.44178518218e-12)
(-88.3219999984 0 -6.5451190185e-11)
(-88.3220000014 0 3.92012695918e-11)
(-88.3220000019 0 8.26672435028e-11)
(-88.321999998 0 -6.01551571368e-11)
(-88.3219999981 0 3.21866547974e-10)
(-88.3220000021 0 -1.25868572402e-11)
(-88.3220000015 0 2.90068478451e-11)
(-88.3219999989 0 -5.04041189405e-11)
(-88.3219999998 0 -7.76872743421e-12)
(-88.3220000004 0 -5.70451660622e-11)
(-88.3220000001 0 1.55555477845e-10)
(-88.3219999998 0 4.06277856808e-10)
(-88.3220000004 0 3.03825393004e-10)
(-88.3220000012 0 3.14998594708e-10)
(-88.3219999981 0 2.37297368246e-10)
(-88.321999999 0 4.58888089874e-10)
(-88.3220000014 0 1.97196810714e-10)
(-88.3219999998 0 -3.28052026248e-10)
(-88.3220000003 0 1.05403588176e-10)
(-88.3219999994 0 -1.58383128028e-10)
(-88.3219999991 0 2.4722258222e-10)
(-88.3220000014 0 5.08715547979e-10)
(-88.3220000007 0 -4.97370099255e-10)
(-88.322 0 -1.23262321263e-10)
(-88.3219999998 0 4.04996386402e-10)
(-88.3219999997 0 7.89744577246e-11)
(-88.3219999998 0 -4.12441115015e-10)
(-88.3219999996 0 -9.16750672491e-10)
(-88.3219999998 0 7.97708795423e-10)
(-88.3220000001 0 8.540420978e-10)
(-88.322 0 6.49616190155e-10)
(-88.3220000004 0 -2.87521876753e-10)
(-88.3220000001 0 -9.28204478757e-11)
(-88.322 0 1.72036348009e-10)
(-88.3220000003 0 -2.71203817772e-11)
(-88.322 0 -4.41029707195e-11)
(-88.3219999997 0 -1.05438659264e-11)
(-88.322 0 8.45420462136e-12)
(-88.322 0 2.34021527107e-11)
(-88.322 0 1.94987077037e-11)
(-88.322 0 -2.87423210161e-12)
(-88.322 0 5.09376186814e-11)
(-88.3220000001 0 -2.0811616641e-10)
(-88.3219999998 0 -2.21946097461e-10)
(-88.3219999999 0 1.7547823916e-11)
(-88.3220000001 0 -2.09438002819e-11)
(-88.322 0 2.74279295932e-11)
(-88.3220000001 0 1.16804908816e-10)
(-88.3219999996 0 1.21562645816e-10)
(-88.3219999996 0 -1.59421475865e-11)
(-88.3220000012 0 5.05966640349e-12)
(-88.3220000011 0 2.14121999259e-11)
(-88.3219999983 0 1.39541281716e-11)
(-88.3219999985 0 5.77749758265e-11)
(-88.3220000004 0 -1.21420234443e-10)
(-88.3220000001 0 1.00051425298e-10)
(-88.3220000001 0 3.39888860612e-12)
(-88.3219999999 0 2.19839583554e-10)
(-88.3220000004 0 2.61212777287e-10)
(-88.322000001 0 3.19686118399e-10)
(-88.3219999995 0 -1.67971444449e-11)
(-88.3219999997 0 1.56302142188e-10)
(-88.3220000003 0 3.48922219681e-10)
(-88.322 0 -2.61629865985e-11)
(-88.322 0 -4.8585743092e-10)
(-88.3219999999 0 -6.96864746773e-10)
(-88.3220000001 0 1.26624691505e-10)
(-88.3219999998 0 7.64083379057e-10)
(-88.3219999999 0 -9.69161347561e-10)
(-88.3220000002 0 -2.75554888316e-10)
(-88.322 0 1.90444133424e-10)
(-88.322 0 3.50517695265e-10)
(-88.322 0 -1.27300147293e-10)
(-88.322 0 2.23332069963e-10)
(-88.322 0 6.04307067279e-11)
(-88.322 0 2.73122126152e-10)
(-88.322 0 -4.2265538121e-11)
(-88.3220000001 0 5.19321399361e-10)
(-88.3219999998 0 5.01268094468e-10)
(-88.3219999997 0 -3.75155564028e-10)
(-88.3220000003 0 -1.00041117097e-10)
(-88.322 0 2.51176879741e-10)
(-88.3220000006 0 -1.89305197467e-11)
(-88.3219999994 0 3.27174046027e-10)
(-88.3219999987 0 -3.60108682667e-10)
(-88.3220000014 0 -5.34752241301e-11)
(-88.3220000015 0 -2.17939365878e-10)
(-88.3219999993 0 1.10908710757e-10)
(-88.322 0 1.19782678539e-10)
(-88.3219999998 0 -3.02811624288e-10)
(-88.322 0 7.00663947505e-10)
(-88.3219999993 0 5.6502718884e-10)
(-88.3219999988 0 3.58376757099e-10)
(-88.3220000002 0 1.53313863182e-10)
(-88.3220000003 0 8.64830772203e-12)
(-88.3220000002 0 -8.49724670136e-11)
(-88.3219999991 0 -1.80399937922e-10)
(-88.322 0 3.44759600909e-10)
(-88.3220000004 0 5.58672292708e-10)
(-88.322 0 -3.6363870884e-11)
(-88.3219999999 0 4.1553515605e-10)
(-88.322 0 3.32356764791e-10)
(-88.322 0 -3.79378820817e-10)
(-88.322 0 6.29578028942e-12)
(-88.3219999999 0 8.46047801032e-11)
(-88.3220000002 0 -3.0046685958e-11)
(-88.3220000002 0 1.42524755856e-10)
(-88.3219999999 0 1.54760104472e-10)
(-88.3219999999 0 -4.29525645822e-10)
(-88.3219999999 0 4.69740984765e-10)
(-88.3219999998 0 3.80882575419e-10)
(-88.3219999998 0 4.62859471942e-10)
(-88.3220000002 0 1.1191153566e-10)
(-88.3220000002 0 -5.78945514618e-10)
(-88.322 0 -2.29488735874e-10)
(-88.3219999999 0 8.20272019314e-10)
(-88.3219999999 0 1.00245915176e-09)
(-88.3220000003 0 -5.6754296058e-10)
(-88.3219999999 0 -5.71852264424e-10)
(-88.3219999998 0 -3.96989613672e-10)
(-88.3219999998 0 -3.05447920529e-11)
(-88.3219999992 0 1.10000263515e-10)
(-88.3219999996 0 -3.75579266571e-10)
(-88.3220000011 0 4.6017158812e-10)
(-88.3220000001 0 5.91839275123e-10)
(-88.3219999992 0 -7.29798897413e-11)
(-88.3220000018 0 -3.4463142244e-10)
(-88.3220000006 0 8.42618799468e-11)
(-88.3219999996 0 1.2801244146e-10)
(-88.3220000002 0 1.03944519196e-10)
(-88.321999999 0 -9.52296059329e-11)
(-88.3220000002 0 -6.94298019485e-12)
(-88.3220000001 0 -5.09457723896e-11)
(-88.3219999999 0 6.42685236712e-12)
(-88.3220000002 0 3.99887697539e-11)
(-88.3219999997 0 3.49734533353e-11)
(-88.322 0 -1.56073263344e-11)
(-88.322 0 9.01754743854e-12)
(-88.322 0 6.99990625886e-12)
(-88.322 0 6.43448347167e-12)
(-88.322 0 1.30331152956e-11)
(-88.3220000001 0 -5.69165180598e-11)
(-88.3219999999 0 2.48516771258e-10)
(-88.3220000001 0 -1.66971961424e-10)
(-88.3220000001 0 -6.9562557574e-11)
(-88.3219999996 0 -1.17945408255e-11)
(-88.3220000002 0 4.80633945779e-11)
(-88.322 0 2.43154743367e-10)
(-88.3219999999 0 -4.07409356343e-10)
(-88.3220000011 0 -4.17256716395e-10)
(-88.3220000002 0 2.92776179527e-10)
(-88.3219999994 0 2.93406781168e-10)
(-88.3220000006 0 3.66452029861e-11)
(-88.3219999985 0 3.61611669923e-10)
(-88.3219999981 0 -7.81169537993e-11)
(-88.3220000002 0 3.98540555034e-10)
(-88.3220000006 0 -2.65862826416e-10)
(-88.3220000008 0 -7.5254703661e-11)
(-88.3220000008 0 -2.27883791823e-10)
(-88.3220000003 0 4.25465306992e-10)
(-88.3219999992 0 2.19878653304e-11)
(-88.3219999986 0 -2.14046279602e-10)
(-88.3220000012 0 3.77250185833e-11)
(-88.3220000003 0 2.21393468019e-11)
(-88.3219999989 0 4.12428149478e-11)
(-88.3220000017 0 -6.9991200857e-11)
(-88.3220000007 0 5.41538730314e-11)
(-88.3219999991 0 -1.40970753113e-10)
(-88.3220000001 0 -1.61853272237e-10)
(-88.3219999999 0 3.97618852536e-10)
(-88.3219999998 0 -3.74192157778e-10)
(-88.322000001 0 -3.55107809077e-10)
(-88.3219999993 0 -6.12981491569e-11)
(-88.3219999985 0 -1.17545162748e-10)
(-88.322 0 -6.34854622525e-12)
(-88.3220000007 0 -1.92367057447e-10)
(-88.3220000017 0 -9.91879291202e-11)
(-88.3220000001 0 2.39067605817e-11)
(-88.3219999984 0 -1.40315857647e-12)
(-88.3219999987 0 1.95298492911e-12)
(-88.3220000011 0 -2.14994528087e-11)
(-88.3220000017 0 -4.17373336702e-13)
(-88.322 0 2.73732185255e-11)
(-88.321999999 0 -6.9582153046e-11)
(-88.3219999991 0 4.22886289401e-11)
(-88.3220000006 0 -2.71330773945e-10)
(-88.3219999997 0 -3.08367225826e-10)
(-88.3219999991 0 -5.16464375072e-10)
(-88.3220000007 0 2.37711724144e-10)
(-88.3220000016 0 -4.01463922228e-10)
(-88.3220000001 0 -3.53816618001e-10)
(-88.321999999 0 7.38507541501e-10)
(-88.3219999999 0 1.84031922145e-10)
(-88.3220000004 0 -1.22431702255e-10)
(-88.3220000004 0 -3.82794599757e-10)
(-88.3219999997 0 -1.37684781518e-10)
(-88.3219999999 0 5.74516000081e-10)
(-88.322 0 -1.26823747033e-10)
(-88.322 0 -9.86721468099e-11)
(-88.322 0 3.53626029706e-11)
(-88.322 0 6.82518270111e-11)
(-88.322 0 -1.49219296926e-10)
(-88.322 0 4.8873990452e-11)
(-88.322 0 2.96509986962e-11)
(-88.3220000001 0 6.11568518684e-12)
(-88.3219999997 0 -7.60179866869e-12)
(-88.322 0 -2.2417066785e-11)
(-88.3220000003 0 2.49162572912e-11)
(-88.322 0 -2.59108103031e-11)
(-88.3219999999 0 9.05925672249e-11)
(-88.3220000001 0 -3.38330940977e-11)
(-88.3220000002 0 6.57314256099e-11)
(-88.3219999999 0 -7.16388998258e-11)
(-88.322 0 4.54069404625e-11)
(-88.3220000001 0 3.22896316324e-10)
(-88.3219999999 0 4.54672027589e-11)
(-88.3219999999 0 7.90955272219e-11)
(-88.3220000001 0 4.56076041582e-10)
(-88.3219999999 0 -4.70323066508e-10)
(-88.3219999998 0 -3.99073734099e-10)
(-88.3219999998 0 7.24723058336e-11)
(-88.3220000001 0 2.18842649185e-10)
(-88.3220000004 0 -9.43110681198e-11)
(-88.322 0 7.84535667753e-11)
(-88.3220000004 0 1.74512268069e-10)
(-88.3219999999 0 -3.27658183154e-10)
(-88.3219999999 0 -5.78439292077e-10)
(-88.322 0 2.00995879619e-10)
(-88.3220000001 0 -4.28389628506e-10)
(-88.3219999999 0 -3.47993905879e-10)
(-88.3220000001 0 3.76233808991e-10)
(-88.3220000004 0 -1.37738772477e-11)
(-88.3219999987 0 -1.12147993951e-10)
(-88.3220000007 0 5.94150461372e-11)
(-88.3220000018 0 -1.41767687616e-10)
(-88.3219999993 0 -1.0352051028e-10)
(-88.3219999993 0 3.28793229693e-10)
(-88.3219999997 0 -4.69929993394e-10)
(-88.3219999999 0 -3.46437994608e-10)
(-88.3219999999 0 -4.48466723876e-10)
(-88.3219999999 0 -2.0457890593e-11)
(-88.3220000001 0 4.0426824466e-10)
(-88.322 0 2.90461595132e-11)
(-88.322 0 -3.60724057291e-10)
(-88.3219999999 0 -6.21184729474e-10)
(-88.3220000002 0 1.66318486699e-10)
(-88.322 0 2.0590777434e-10)
(-88.3219999998 0 1.89945037827e-10)
(-88.3220000002 0 -2.65776973668e-10)
(-88.3219999999 0 -2.66662589605e-10)
(-88.3220000001 0 4.36371561474e-11)
(-88.322 0 -4.43764693092e-10)
(-88.322 0 -4.03340293878e-10)
(-88.3220000002 0 -1.03252537127e-10)
(-88.3219999995 0 3.93178997899e-10)
(-88.3219999997 0 -6.5453450253e-11)
(-88.3220000013 0 -7.22890211928e-11)
(-88.3220000014 0 -1.01103547701e-10)
(-88.3219999991 0 -4.35609377836e-11)
(-88.3219999982 0 1.88833692029e-10)
(-88.322 0 -3.40085227469e-11)
(-88.3220000012 0 5.757335e-11)
(-88.322 0 -2.74033759732e-11)
(-88.3219999994 0 -1.56549815003e-11)
(-88.3220000004 0 3.27888500805e-11)
(-88.322 0 -9.9244547211e-13)
(-88.3219999996 0 -1.01971479611e-11)
(-88.3220000001 0 -3.19036345184e-11)
(-88.322 0 -2.33337753793e-11)
(-88.3220000001 0 3.86220038304e-11)
(-88.3219999999 0 -1.61402736624e-10)
(-88.3220000001 0 3.45541184001e-11)
(-88.322 0 8.69482240937e-11)
(-88.3219999996 0 -1.27242665033e-10)
(-88.3220000001 0 -1.22498403472e-10)
(-88.322 0 7.8757395049e-11)
(-88.3219999999 0 5.10671981583e-10)
(-88.3220000004 0 5.18652410914e-10)
(-88.3220000002 0 -2.9235485053e-10)
(-88.3219999999 0 -3.09013377702e-10)
(-88.3219999999 0 -1.77886213125e-10)
(-88.3219999997 0 -4.25151677165e-10)
(-88.3219999998 0 1.4858729581e-10)
(-88.3219999992 0 -3.92003719255e-10)
(-88.3219999994 0 3.43590756667e-10)
(-88.3220000012 0 -1.41341920253e-10)
(-88.3220000004 0 1.21840646235e-10)
(-88.3220000002 0 -2.46524340828e-10)
(-88.3220000001 0 -7.14370976652e-12)
(-88.322 0 -3.97160603296e-11)
(-88.322 0 -8.2559897386e-12)
(-88.322 0 -6.61599668941e-11)
(-88.322 0 7.21672625442e-11)
(-88.322 0 3.32262012913e-11)
(-88.322 0 -8.16457433768e-11)
(-88.3220000001 0 1.35090010064e-10)
(-88.322 0 1.49224586758e-10)
(-88.322 0 -4.48141734987e-10)
(-88.322 0 5.22719741371e-10)
(-88.322 0 5.31477614272e-10)
(-88.322 0 9.07862423062e-11)
(-88.322 0 1.17896400944e-10)
(-88.322 0 -1.77800269481e-11)
(-88.322 0 7.03740846123e-11)
(-88.322 0 -1.35388387569e-11)
(-88.322 0 5.66631145773e-12)
(-88.322 0 3.33576789185e-12)
(-88.322 0 -2.07102660878e-11)
(-88.322 0 1.63144019939e-11)
(-88.322 0 -3.3348483955e-12)
(-88.322 0 1.14331063927e-10)
(-88.322 0 -4.38565561431e-11)
(-88.322 0 -4.1165800448e-11)
(-88.322 0 5.44773038954e-11)
(-88.322 0 -2.54235560909e-11)
(-88.322 0 2.78982178181e-11)
(-88.322 0 -1.50058820614e-10)
(-88.322 0 3.97599430387e-11)
(-88.322 0 -5.89837082555e-11)
(-88.322 0 -5.90493066797e-11)
(-88.322 0 2.12494625847e-10)
(-88.3220000002 0 -1.07751507135e-10)
(-88.3219999999 0 1.36325819364e-10)
(-88.3219999997 0 -1.59203724977e-10)
(-88.3220000001 0 -7.01095112156e-10)
(-88.322 0 1.4231324629e-10)
(-88.322 0 2.8043782389e-10)
(-88.322 0 -1.09283252082e-11)
(-88.322 0 -6.7998758695e-11)
(-88.322 0 1.55949931709e-10)
(-88.322 0 -7.23635677689e-11)
(-88.322 0 -2.59299620231e-11)
(-88.322 0 -1.85116654489e-11)
(-88.322 0 -4.8903335954e-11)
(-88.322 0 1.12994904002e-10)
(-88.3219999999 0 -1.11650046218e-11)
(-88.3220000002 0 1.64653912827e-10)
(-88.3220000003 0 -4.25604363697e-11)
(-88.3219999997 0 -5.96639509377e-11)
(-88.321999999 0 -1.32641788655e-10)
(-88.321999999 0 6.7708620336e-11)
(-88.3220000017 0 1.13190925624e-10)
(-88.3220000018 0 -2.42332753906e-10)
(-88.3219999995 0 -9.95782317017e-11)
(-88.3220000001 0 -7.2506608072e-11)
(-88.3219999994 0 -9.03823547591e-11)
(-88.3219999998 0 3.74978561264e-11)
(-88.3219999994 0 5.84278238785e-11)
(-88.3219999993 0 -9.59410438554e-10)
(-88.3220000005 0 -7.55664662651e-10)
(-88.322 0 -2.2597087932e-10)
(-88.3219999997 0 9.82024579645e-11)
(-88.322 0 1.16199975255e-10)
(-88.3219999999 0 -1.36428151253e-10)
(-88.322 0 -4.34902921997e-11)
(-88.3219999998 0 5.41871196179e-11)
(-88.3219999999 0 4.91521748881e-11)
(-88.3220000002 0 -1.03364905095e-10)
(-88.322 0 -1.15122935461e-10)
(-88.322 0 -3.49057250712e-11)
(-88.322 0 -5.05274102085e-11)
(-88.322 0 -3.1375788852e-12)
(-88.3219999999 0 -1.82019514718e-11)
(-88.3220000001 0 -4.91522850733e-12)
(-88.3220000001 0 -2.12492043315e-11)
(-88.3219999999 0 -2.71795923737e-11)
(-88.322 0 -3.41644088054e-11)
(-88.322 0 -2.7353529523e-11)
(-88.322 0 -7.92529822204e-12)
(-88.322 0 4.17041887064e-11)
(-88.322 0 -1.6010335467e-10)
(-88.3219999999 0 -6.43692982878e-11)
(-88.3219999999 0 4.29052786452e-10)
(-88.322 0 3.10404192802e-10)
(-88.3220000001 0 -4.35980691404e-10)
(-88.3220000001 0 -3.39081791889e-10)
(-88.322 0 -1.19126113735e-10)
(-88.3219999999 0 5.63300421749e-11)
(-88.3220000001 0 -1.42503464133e-10)
(-88.3220000002 0 1.04054625779e-10)
(-88.322 0 -1.40938474858e-10)
(-88.3220000001 0 -3.93228162349e-10)
(-88.3219999997 0 -2.93818544185e-10)
(-88.3219999991 0 1.86355128935e-10)
(-88.3220000013 0 -3.91581798399e-10)
(-88.3220000015 0 -4.36528954744e-10)
(-88.3219999992 0 -3.9849121886e-10)
(-88.3219999999 0 4.22265452562e-10)
(-88.3219999995 0 3.28206398036e-10)
(-88.3219999992 0 -3.57166177868e-10)
(-88.3220000002 0 -2.43665327399e-10)
(-88.322 0 4.79758393115e-10)
(-88.322 0 1.0036630669e-10)
(-88.322 0 -3.09251748284e-10)
(-88.322 0 -5.09856270047e-10)
(-88.322 0 2.39416050895e-10)
(-88.3220000001 0 -2.33218813007e-10)
(-88.3219999999 0 -6.10669479531e-11)
(-88.3219999998 0 -4.92171701818e-10)
(-88.322 0 4.22255619259e-10)
(-88.3220000001 0 -9.93692885773e-11)
(-88.322 0 5.5736673549e-11)
(-88.3220000005 0 2.1728042047e-10)
(-88.3219999998 0 -3.55970695332e-10)
(-88.3219999994 0 -8.45174422527e-10)
(-88.322000001 0 -9.91912425723e-10)
(-88.3220000007 0 -3.55238075514e-10)
(-88.3219999996 0 9.00542157389e-10)
(-88.3219999998 0 5.31873783864e-10)
(-88.3219999994 0 -7.18965862305e-11)
(-88.3219999995 0 -6.11426751862e-10)
(-88.3220000012 0 6.56413806934e-10)
(-88.322000001 0 -2.36809243937e-11)
(-88.3219999996 0 -1.63137302873e-10)
(-88.3219999995 0 -1.68512814336e-11)
(-88.322 0 1.03401120041e-10)
(-88.3220000006 0 5.8636579942e-11)
(-88.3220000003 0 1.87472569172e-10)
(-88.3219999997 0 -2.01934505667e-10)
(-88.3219999999 0 1.47244857396e-10)
(-88.3220000004 0 -2.37089608837e-10)
(-88.3220000003 0 1.74595665973e-10)
(-88.3219999999 0 2.10445933598e-10)
(-88.322 0 -1.85976079176e-10)
(-88.3219999999 0 -3.8546451501e-10)
(-88.322 0 -1.42896995772e-10)
(-88.322 0 -4.30926935485e-10)
(-88.322 0 -4.29027958075e-10)
(-88.322 0 -1.7529396878e-10)
(-88.322 0 7.52348987335e-11)
(-88.322 0 3.130062426e-11)
(-88.322 0 8.41770067284e-11)
(-88.3219999999 0 -3.05562869332e-10)
(-88.3220000003 0 -6.36396747936e-10)
(-88.3220000002 0 2.93406825205e-10)
(-88.3219999988 0 3.0182011525e-10)
(-88.3219999992 0 7.04719138578e-10)
(-88.3220000018 0 -4.17773438809e-10)
(-88.3220000013 0 -3.70115618055e-10)
(-88.3219999994 0 2.73726160917e-10)
(-88.3219999993 0 2.60312089779e-10)
(-88.322 0 2.60802658111e-10)
(-88.322 0 1.02944255182e-10)
(-88.3220000001 0 2.63941278157e-10)
(-88.3220000009 0 9.9141466044e-11)
(-88.3220000002 0 1.96398661069e-11)
(-88.3219999988 0 8.58855096983e-11)
(-88.3220000002 0 -1.17519935221e-10)
(-88.3220000012 0 -3.72535679559e-10)
(-88.3220000003 0 4.85372223837e-10)
(-88.3219999981 0 6.9359356409e-10)
(-88.3219999982 0 4.25139183608e-10)
(-88.3220000016 0 6.78034218394e-10)
(-88.3220000011 0 -4.19410564229e-10)
(-88.3219999984 0 -2.07246579181e-11)
(-88.3219999993 0 1.17625625454e-11)
(-88.3220000016 0 -4.95480230524e-11)
(-88.3220000012 0 4.99550009617e-11)
(-88.3219999989 0 -7.39594777902e-11)
(-88.3219999995 0 3.32362662571e-11)
(-88.3220000005 0 -1.01755881995e-10)
(-88.3220000005 0 -2.56435030139e-10)
(-88.321999999 0 2.09724647901e-10)
(-88.3219999991 0 2.88012152746e-10)
(-88.322000001 0 3.71220206607e-10)
(-88.3219999996 0 -3.19331590455e-10)
(-88.3220000004 0 -3.29034307107e-10)
(-88.322000001 0 5.777553843e-10)
(-88.3220000002 0 6.78708370121e-11)
(-88.3220000008 0 1.01898072619e-10)
(-88.3219999982 0 3.34604034658e-10)
(-88.3219999978 0 5.09352078355e-10)
(-88.322000002 0 5.75686362451e-10)
(-88.3220000016 0 -2.04360848294e-10)
(-88.3219999983 0 -3.08763870223e-10)
(-88.3219999982 0 -1.83661355142e-10)
(-88.3220000009 0 4.11447819113e-10)
(-88.3220000005 0 3.51315354676e-10)
(-88.3219999994 0 2.69126198518e-10)
(-88.322 0 -1.55273769932e-10)
(-88.3219999999 0 -1.9393682289e-10)
(-88.3220000003 0 1.10815396086e-10)
(-88.322 0 -2.35733020134e-11)
(-88.3219999999 0 -4.70331761732e-11)
(-88.3219999999 0 -8.81787744246e-11)
(-88.3219999993 0 9.31067520518e-11)
(-88.3220000007 0 7.70164084148e-11)
(-88.3220000012 0 3.03819808843e-11)
(-88.3219999999 0 -2.72627321757e-11)
(-88.322 0 -2.40660419642e-10)
(-88.3220000004 0 -3.3044307845e-11)
(-88.3219999997 0 -6.94974058191e-11)
(-88.3219999991 0 -8.44037077436e-11)
(-88.3219999995 0 5.98764950776e-11)
(-88.322 0 -8.1774889612e-11)
(-88.3220000007 0 -1.1364608629e-11)
(-88.3220000015 0 4.69883465859e-12)
(-88.3219999989 0 -6.43309891074e-11)
(-88.3219999981 0 1.78084993801e-10)
(-88.321999999 0 1.06335505062e-11)
(-88.3220000014 0 -3.11769337374e-10)
(-88.3220000022 0 -2.13496346169e-10)
(-88.3219999988 0 3.11461507556e-10)
(-88.3219999988 0 4.21570749454e-10)
(-88.322 0 1.24516358929e-10)
(-88.3220000001 0 -4.34344396657e-11)
(-88.3220000001 0 1.46844157882e-10)
(-88.3220000002 0 -7.60930323429e-11)
(-88.3220000004 0 1.51055600855e-10)
(-88.3220000001 0 3.93646804651e-10)
(-88.322 0 2.94446467505e-10)
(-88.3219999999 0 -1.87934622014e-10)
(-88.3220000002 0 4.72245820971e-10)
(-88.3219999995 0 2.87955259334e-10)
(-88.3219999992 0 5.70431434712e-10)
(-88.322 0 -4.72772485839e-10)
(-88.3220000011 0 -3.23453536568e-10)
(-88.3220000005 0 4.90924832873e-10)
(-88.3219999994 0 2.24288461337e-10)
(-88.322 0 -4.79065385034e-10)
(-88.322 0 -9.34338064201e-11)
(-88.3220000001 0 2.96698578748e-10)
(-88.322 0 5.27383541262e-10)
(-88.322 0 -3.60977509985e-10)
(-88.3220000007 0 2.16097963787e-10)
(-88.3219999993 0 3.2873978479e-11)
(-88.3219999986 0 4.95668890435e-10)
(-88.3219999997 0 -4.44051134929e-10)
(-88.3220000014 0 2.31176016188e-11)
(-88.3220000015 0 1.17249037972e-10)
(-88.3219999986 0 -4.55158223138e-10)
(-88.321999999 0 1.05253378115e-10)
(-88.3220000003 0 6.86111208109e-10)
(-88.3220000005 0 6.50698213409e-10)
(-88.3219999999 0 3.82103923539e-10)
(-88.3219999992 0 -4.0669885365e-10)
(-88.3220000012 0 -5.4951729374e-10)
(-88.322000001 0 4.66636874626e-10)
(-88.3219999995 0 4.20381605911e-10)
(-88.3219999998 0 -3.34293164253e-10)
(-88.322 0 -4.66628281117e-10)
(-88.3219999999 0 1.16132004226e-10)
(-88.322 0 -1.59716223463e-10)
(-88.322 0 -2.89433305083e-11)
(-88.322 0 9.37433887584e-11)
(-88.322 0 -1.5915236849e-10)
(-88.322 0 1.76230495287e-10)
(-88.322 0 -7.89063080093e-11)
(-88.322 0 1.48036394422e-10)
(-88.322 0 -1.87088217158e-10)
(-88.322 0 -1.09455908787e-10)
(-88.3220000001 0 -1.69585461642e-10)
(-88.3220000004 0 1.27031719285e-11)
(-88.322 0 3.0280192394e-10)
(-88.3219999996 0 1.60916926017e-10)
(-88.3220000001 0 -1.1504408639e-10)
(-88.3219999998 0 -2.43102972955e-10)
(-88.322 0 1.04583994843e-10)
(-88.3220000001 0 1.43517286201e-10)
(-88.3219999998 0 -1.7496640244e-10)
(-88.322 0 3.33544879877e-10)
(-88.322 0 6.30105122129e-10)
(-88.3220000001 0 -2.77552053671e-10)
(-88.3219999998 0 -3.12345069869e-10)
(-88.3219999998 0 -7.23006711608e-10)
(-88.3220000005 0 3.45974131472e-10)
(-88.322 0 3.41342803013e-10)
(-88.3219999998 0 -2.92009861184e-10)
(-88.3220000001 0 -2.62328060113e-10)
(-88.322 0 -2.87935467015e-10)
(-88.322 0 -1.83825732146e-10)
(-88.322 0 -1.96208846047e-10)
(-88.322 0 -9.67004217317e-11)
(-88.322 0 8.92646560442e-11)
(-88.322 0 1.07358494336e-10)
(-88.3219999998 0 -1.37528431007e-10)
(-88.3220000002 0 2.90714536231e-10)
(-88.3220000002 0 -2.87351314899e-10)
(-88.3219999997 0 -5.74180167966e-10)
(-88.322 0 -4.68476914972e-10)
(-88.3219999998 0 -9.04653319651e-11)
(-88.3220000001 0 -9.6570942494e-11)
(-88.3220000004 0 -4.22784996133e-10)
(-88.3219999999 0 2.27297694546e-10)
(-88.322 0 3.09628905513e-10)
(-88.322 0 -3.52301391149e-10)
(-88.3220000002 0 3.53764205392e-11)
(-88.3220000001 0 -4.71970518665e-10)
(-88.3219999998 0 -4.18191295606e-10)
(-88.322 0 8.87854780998e-11)
(-88.3219999999 0 -6.81385004789e-10)
(-88.322 0 -4.01257657141e-10)
(-88.3219999999 0 -4.14458167725e-10)
(-88.3220000006 0 2.13038910285e-10)
(-88.3220000005 0 2.89568902122e-10)
(-88.3219999988 0 -4.82079036946e-10)
(-88.3219999992 0 -8.05966690868e-11)
(-88.3220000013 0 -4.29535183104e-10)
(-88.3220000003 0 2.55342311388e-10)
(-88.3219999997 0 -4.22268347489e-10)
(-88.3220000003 0 -8.00742901047e-10)
(-88.3219999998 0 -2.08969079724e-10)
(-88.3219999999 0 6.50360593205e-11)
(-88.322 0 2.67461190906e-10)
(-88.322 0 3.32405512494e-11)
(-88.322 0 -6.27484179939e-13)