/*--------------------------------*- C++ -*----------------------------------*\
  =========                 |
  \\      /  F ield         | OpenFOAM: The Open Source CFD Toolbox
   \\    /   O peration     | Website:  https://openfoam.org
    \\  /    A nd           | Version:  6
     \\/     M anipulation  |
\*---------------------------------------------------------------------------*/
FoamFile
{
    version     2.0;
    format      ascii;
    class       volScalarField;
    location    "4.63e-05";
    object      p;
}
// * * * * * * * * * * * * * * * * * * * * * * * * * * * * * * * * * * * * * //

dimensions      [1 -1 -2 0 0 0 0];

internalField   nonuniform List<scalar> 
8192
(
6000000.00053
5999999.99943
6000000.00051
6000000.00062
6000000.00422
5999999.99761
6000000.00135
5999999.99984
6000000.00009
5999999.99979
6000000.00027
5999999.99977
6000000.0006
6000000.00142
6000000.00072
6000000.00049
6000000.00059
5999999.99857
5999999.99896
6000000.00066
5999999.99851
5999999.99726
6000000.00173
5999999.99977
5999999.99958
6000000.00011
5999999.99855
5999999.99924
5999999.99823
5999999.99931
6000000.00016
6000000.00037
5999999.99672
5999999.99368
6000000.00773
6000000.00763
5999999.99904
6000000.00462
5999999.99931
5999999.99745
6000000.00293
5999999.99805
6000000.00007
5999999.9999
6000000.0003
6000000.00024
6000000.00002
6000000.00006
5999999.99913
6000000.00135
5999999.99735
6000000.00032
6000000.00289
5999999.99628
5999999.99697
6000000.00141
6000000.00003
6000000.0029
5999999.99984
6000000.00523
5999999.99679
5999999.99765
5999999.99724
6000000.00199
6000000.00046
6000000.00188
5999999.99964
6000000.00361
5999999.99604
6000000.00295
5999999.99879
5999999.99721
6000000.00261
6000000.00284
6000000.00686
5999999.99673
5999999.99426
6000000.00651
6000000.00255
5999999.99548
5999999.99477
5999999.99253
6000000.00316
6000000.00586
6000000.0001
5999999.99901
6000000.00644
6000000.00481
5999999.99793
5999999.99716
5999999.99878
5999999.99832
5999999.9972
6000000.00384
5999999.99712
6000000.0019
6000000.00159
5999999.99945
6000000.00374
5999999.99824
5999999.99967
5999999.99988
5999999.99971
6000000.00015
5999999.99912
6000000.0003
6000000.00012
6000000
5999999.99998
5999999.99998
6000000.00006
6000000.00015
5999999.99955
6000000.00059
5999999.99976
6000000.0011
6000000.00011
5999999.99893
6000000.00082
5999999.99931
5999999.99928
5999999.99895
6000000.00003
5999999.99932
6000000.00019
5999999.99954
6000000.00034
6000000.0003
6000000.00565
6000000.00058
5999999.99769
6000000.0006
5999999.99895
5999999.99946
5999999.99997
5999999.99983
6000000.00045
6000000.00088
5999999.99853
6000000.00372
6000000.0008
6000000.00324
6000000.00442
5999999.99681
5999999.99656
5999999.99811
6000000.00213
6000000.00232
5999999.99993
5999999.99989
5999999.99888
6000000.00065
5999999.99509
6000000.00092
5999999.99667
5999999.99653
6000000.0014
6000000.00062
5999999.99863
5999999.99911
5999999.9998
5999999.99958
6000000.00024
6000000.00052
5999999.99964
6000000.00231
6000000.00019
6000000.00106
5999999.99826
6000000.00055
5999999.99769
6000000.00298
6000000.00215
6000000.00277
6000000.00192
6000000.00411
6000000.00245
6000000.00072
5999999.99438
6000000.00264
6000000.0014
5999999.99822
6000000.00075
5999999.9979
6000000.00264
6000000.00127
6000000.00212
5999999.99391
5999999.99233
6000000.00184
6000000.00636
6000000.00421
5999999.99932
5999999.99965
6000000.0007
6000000.00013
5999999.99992
6000000.00001
5999999.99997
6000000.00001
6000000.00015
6000000.00002
6000000.00008
5999999.99782
5999999.99762
6000000.00269
5999999.99925
5999999.99998
6000000.00005
5999999.99998
6000000.0001
6000000.00027
6000000.00023
5999999.99945
5999999.99994
6000000.00003
5999999.99981
5999999.99998
5999999.99988
5999999.99633
6000000.00053
6000000.00149
5999999.99697
6000000.00092
6000000.00699
5999999.99399
5999999.99673
6000000.00535
6000000.00866
5999999.99173
5999999.99569
6000000.00165
6000000.00383
5999999.99586
6000000.00294
6000000.00016
6000000.00445
5999999.9982
6000000.00719
6000000.00367
5999999.99221
6000000.00042
6000000.00594
5999999.99806
6000000.0052
5999999.99433
5999999.99876
6000000.00172
6000000.0028
6000000.00349
6000000.00055
6000000.00217
6000000.00082
5999999.99894
5999999.99939
5999999.99919
5999999.99984
5999999.99887
6000000.00046
5999999.99821
6000000.00241
5999999.99859
5999999.99974
5999999.99934
5999999.99975
5999999.99992
5999999.99992
6000000.00106
6000000.00154
5999999.997
6000000.00048
6000000.00097
6000000.00003
6000000.0025
5999999.99494
5999999.99729
6000000.0053
6000000.00131
5999999.99622
5999999.99517
5999999.99925
5999999.99488
5999999.99826
5999999.99485
6000000.00146
6000000.00481
5999999.99637
6000000.00055
5999999.99909
6000000.00137
5999999.99966
5999999.99921
6000000.00168
5999999.99755
6000000.00157
6000000.00004
6000000.00001
6000000.00016
6000000.00001
6000000.00001
6000000.00002
6000000.00022
5999999.99888
6000000.00142
5999999.99722
5999999.99982
5999999.99874
6000000.0013
6000000.00518
5999999.99842
5999999.99421
6000000.00265
6000000.00596
5999999.99802
6000000.00351
5999999.99824
6000000.00624
5999999.99675
5999999.99703
5999999.99658
6000000.00222
6000000.00186
5999999.9959
6000000.00182
6000000.00082
6000000.00036
6000000.00076
5999999.99906
6000000.00016
6000000.00044
5999999.99842
6000000.0026
6000000.00232
6000000.00097
6000000.00019
5999999.99966
5999999.99735
5999999.99771
6000000.00056
6000000.00077
5999999.99982
5999999.99864
5999999.99805
6000000.00089
5999999.99667
6000000.00073
5999999.9969
5999999.99384
5999999.99654
6000000.00319
5999999.9976
5999999.99625
6000000.00733
5999999.99876
6000000.00288
6000000.0001
5999999.99711
6000000.00391
5999999.99607
6000000.0033
5999999.99974
5999999.99953
6000000.00064
5999999.99998
6000000.00036
6000000.0001
6000000.00045
6000000.00167
5999999.99834
6000000.00291
6000000.00098
5999999.99785
6000000.00175
5999999.99987
5999999.99985
6000000.004
5999999.99846
6000000.00328
6000000.00312
5999999.99366
5999999.99302
5999999.99572
5999999.99882
6000000.00085
6000000.00179
6000000.00234
5999999.99493
5999999.99169
6000000.00156
5999999.99639
5999999.99864
6000000.00538
5999999.99846
5999999.99886
6000000.00181
5999999.99702
5999999.99797
6000000.00655
5999999.99598
5999999.99897
5999999.99361
6000000.00148
6000000.00525
5999999.99993
5999999.99802
5999999.99115
6000000.00361
5999999.99949
6000000.00408
5999999.99843
5999999.99701
6000000.0027
5999999.99499
5999999.99386
6000000.0002
6000000.00294
5999999.99819
5999999.99788
5999999.99758
6000000.00184
6000000.00199
5999999.99811
6000000.00167
5999999.99866
5999999.99927
6000000.0007
5999999.99951
5999999.99986
6000000.00004
6000000.00017
6000000.00108
5999999.9968
6000000.0011
6000000.0002
5999999.99953
5999999.99725
6000000.00139
6000000.00057
5999999.99878
6000000.0011
6000000.00113
5999999.99807
5999999.99926
6000000.00028
5999999.99948
5999999.99731
5999999.99705
5999999.99879
5999999.99614
6000000.00209
6000000.00196
6000000.00051
6000000.00036
5999999.99935
6000000.00241
5999999.9981
6000000.00291
6000000.0021
5999999.9953
6000000.00444
6000000.0014
6000000.00048
6000000.00078
5999999.99852
6000000.00205
5999999.99968
5999999.99932
6000000.00076
6000000.0002
5999999.99963
5999999.99781
6000000.00338
5999999.99734
5999999.99961
6000000.00143
5999999.99727
6000000.00312
5999999.99685
6000000.00203
5999999.9991
5999999.99973
5999999.99776
6000000.00262
6000000.00638
5999999.9981
5999999.99804
6000000.00064
6000000.00253
5999999.99861
5999999.99787
6000000.0049
5999999.99838
5999999.99988
5999999.99981
6000000.00067
6000000.00297
5999999.99769
6000000.00393
5999999.9985
5999999.99866
6000000.00175
6000000.00001
5999999.99986
6000000.00293
6000000.00086
6000000.00243
5999999.99912
5999999.99887
5999999.99948
5999999.99707
5999999.99525
6000000.00235
6000000.00081
5999999.99879
5999999.99962
5999999.9991
6000000.00003
5999999.99864
6000000.00052
5999999.99946
6000000.00026
5999999.99992
6000000
6000000.00003
5999999.99913
6000000.00044
6000000.00007
5999999.99988
5999999.99989
5999999.99981
6000000.0001
6000000.00015
5999999.99985
5999999.99989
5999999.99982
6000000.00002
5999999.99981
5999999.99992
5999999.9998
5999999.99972
6000000.00001
6000000
5999999.99981
5999999.99998
6000000.00001
5999999.9999
5999999.99863
6000000.0026
5999999.99823
5999999.99938
5999999.99937
5999999.99949
6000000.00004
5999999.99998
6000000.00001
6000000.00001
6000000.00082
6000000.00029
6000000.00002
6000000.00005
5999999.99959
5999999.99765
6000000.00262
6000000.00224
5999999.99894
5999999.99415
5999999.99263
6000000.00181
6000000.00512
6000000.00179
6000000.0041
5999999.99671
6000000.00454
5999999.9938
6000000.00077
5999999.99653
6000000.00045
6000000.00019
6000000.00237
5999999.99915
6000000.00153
5999999.99743
6000000.00132
5999999.99994
6000000.00004
6000000.00026
6000000.00019
5999999.99995
5999999.99948
6000000.00223
5999999.99976
6000000.00001
6000000.00002
5999999.99992
5999999.99989
6000000.00006
6000000.00033
5999999.99938
5999999.99914
5999999.99912
5999999.99892
5999999.99976
5999999.99877
5999999.99754
6000000.00138
6000000.00076
6000000.00073
6000000.00193
5999999.99779
5999999.9972
6000000.00771
6000000.00352
6000000.00105
6000000.00339
5999999.99743
5999999.99916
6000000.00051
5999999.99978
6000000.00044
6000000.00005
6000000.00055
6000000.00015
6000000.00199
5999999.99923
5999999.99869
6000000.00019
5999999.99965
6000000.00015
6000000.00493
5999999.99979
5999999.99766
6000000.00314
6000000.00176
6000000.00082
6000000.00091
5999999.99729
5999999.99823
6000000.0047
6000000.00461
6000000.00277
5999999.99765
5999999.99768
6000000.00255
5999999.99975
5999999.99835
5999999.99751
6000000.00324
6000000.00222
6000000.00006
6000000.00141
5999999.99855
6000000.001
5999999.99955
6000000.00062
6000000.00064
6000000.00051
6000000.00079
5999999.99939
5999999.99905
6000000.00157
6000000.00134
5999999.99346
5999999.99511
6000000.00356
6000000.0013
5999999.99975
5999999.99846
6000000.00266
5999999.99749
6000000.00085
6000000.00149
6000000.00252
5999999.99362
6000000.00289
6000000.00178
6000000.00515
5999999.99524
5999999.99756
6000000.00141
6000000.00099
5999999.99455
5999999.99841
6000000.00357
6000000.00588
5999999.99887
6000000.00176
6000000.00132
6000000.00449
5999999.99715
6000000.0012
6000000.0017
5999999.99597
6000000.00328
6000000.003
6000000.00566
6000000.00885
5999999.99513
5999999.9978
6000000.00407
6000000.00645
5999999.99421
5999999.99413
6000000.00237
5999999.99766
6000000.00001
6000000.00055
5999999.99691
6000000.00237
5999999.99759
6000000.00115
5999999.99688
5999999.99519
6000000.00302
6000000.00344
5999999.99898
6000000.00345
6000000.00153
6000000.00048
5999999.99952
5999999.99952
5999999.9981
6000000.00389
6000000.00771
5999999.99641
5999999.99875
5999999.99209
6000000.00519
6000000.00669
5999999.99576
5999999.99697
5999999.9961
5999999.99765
5999999.9963
6000000.00044
5999999.99937
6000000.00081
5999999.99944
5999999.99948
6000000.00294
5999999.99505
5999999.99526
5999999.99648
6000000.00585
6000000.00011
5999999.99931
6000000.00099
5999999.99959
6000000.00218
5999999.9994
6000000.00156
6000000.00615
5999999.99616
5999999.9949
5999999.99363
6000000.00263
6000000.00246
5999999.99286
5999999.99745
5999999.99669
6000000.00138
5999999.99853
5999999.99406
6000000.00425
6000000.00377
6000000.00006
6000000.00089
5999999.99999
6000000.00024
6000000.00028
6000000.00013
6000000.00001
5999999.99998
5999999.99991
5999999.99988
6000000.00015
6000000.00012
5999999.99905
6000000.00159
6000000.00529
6000000.00015
6000000.00051
6000000.0023
5999999.99924
6000000.0027
6000000.00066
5999999.99972
5999999.99993
5999999.9998
6000000.00157
5999999.99767
5999999.9974
6000000.00125
5999999.99726
6000000.0008
5999999.99916
5999999.99975
5999999.99965
6000000
5999999.99985
6000000.00004
6000000.00006
5999999.99749
6000000.00289
5999999.99889
5999999.99933
5999999.9999
5999999.99718
6000000.00091
6000000.00076
6000000.00004
6000000.00032
5999999.99889
6000000.00324
5999999.99986
5999999.99999
6000000.00052
5999999.99952
6000000.0004
5999999.99815
6000000.00478
6000000.00316
5999999.99615
5999999.99817
6000000.00227
5999999.99805
6000000.00326
5999999.99941
6000000.00001
6000000.00004
5999999.99967
6000000.00012
5999999.9995
6000000.00105
5999999.99753
6000000.00182
6000000.00085
6000000.00074
5999999.99968
6000000.00034
5999999.9971
6000000.00665
6000000.00314
5999999.99474
6000000.0015
6000000.0032
6000000.00423
5999999.99666
5999999.99529
6000000.00296
5999999.99872
5999999.9996
6000000.0001
5999999.99994
5999999.99992
5999999.99997
6000000.00002
5999999.99989
5999999.99993
5999999.99988
6000000.00013
5999999.99879
6000000.00174
5999999.99752
5999999.99948
6000000.00134
5999999.99407
6000000.0047
6000000.00492
6000000.00169
5999999.9991
6000000.00338
6000000.00508
5999999.99752
5999999.9963
6000000.00359
5999999.99964
6000000.00334
6000000.00505
6000000.00055
6000000.00596
6000000.00004
5999999.99976
6000000.00099
6000000.00065
5999999.99987
6000000.00002
6000000.0034
5999999.99862
6000000.00107
6000000.00189
6000000.00318
6000000.00226
5999999.99411
6000000.00133
6000000.00051
6000000.00019
5999999.99918
6000000.00521
6000000.00275
5999999.9982
6000000.0026
6000000.00009
5999999.99981
6000000.00068
5999999.99933
6000000.00183
5999999.99337
6000000.00296
6000000.00173
5999999.99965
5999999.99931
6000000.00004
6000000.00076
6000000.00008
6000000.00003
6000000.00002
6000000
6000000.00001
5999999.99989
6000000.00001
5999999.99981
6000000
6000000.0001
5999999.99936
6000000.00086
5999999.99996
5999999.9998
5999999.99982
6000000.00004
5999999.9988
6000000.00004
6000000.00034
6000000.00069
5999999.9981
5999999.99824
6000000.00099
6000000.00117
5999999.99929
6000000.00077
5999999.9986
6000000.00242
6000000.00198
6000000.00053
6000000.00034
5999999.99951
5999999.99879
6000000.00219
5999999.99523
6000000.00673
5999999.99667
5999999.99514
6000000.00432
6000000.00385
6000000.00531
6000000.00005
6000000.00013
5999999.9956
5999999.9949
5999999.99596
6000000.00147
5999999.99765
6000000.00474
5999999.99947
5999999.9979
6000000.00072
5999999.99775
6000000.0014
5999999.99802
6000000.00464
5999999.99404
5999999.99634
6000000.00487
5999999.99551
5999999.99691
5999999.99834
6000000.00138
6000000.00128
6000000.00096
6000000.00002
6000000.00098
6000000.00012
6000000.00211
5999999.99608
6000000.00148
6000000.00087
5999999.9999
5999999.99788
5999999.99976
5999999.99968
5999999.9978
5999999.99891
6000000.00102
5999999.99995
6000000.0012
6000000.00182
5999999.99812
5999999.99894
6000000.00382
5999999.99938
5999999.99985
5999999.99998
6000000.00001
6000000.00001
6000000.00014
6000000.00002
5999999.99997
6000000.00039
6000000.00037
5999999.9968
6000000.00043
5999999.99994
5999999.99978
6000000.00001
6000000.00028
5999999.99815
6000000.0029
6000000.00198
5999999.99501
6000000.00676
5999999.99385
5999999.99259
6000000.00309
6000000.00564
5999999.99279
5999999.9977
5999999.99771
5999999.99965
6000000.00175
5999999.99832
6000000.00093
5999999.99674
5999999.9974
6000000
5999999.9981
6000000.00246
5999999.99745
6000000.00179
6000000.00313
5999999.99536
5999999.99637
5999999.99512
5999999.99967
6000000.00461
6000000.00168
5999999.99624
5999999.99302
6000000.00407
6000000.00323
5999999.99468
5999999.99876
6000000.0051
6000000.00412
5999999.99747
5999999.99827
6000000.00358
5999999.99981
6000000.00002
6000000.00001
5999999.99998
6000000.00048
6000000.00151
5999999.99863
5999999.99843
5999999.99913
6000000.00005
6000000.00099
5999999.99984
6000000.0004
5999999.99858
5999999.99795
6000000.00131
6000000.0003
6000000.00005
6000000.00002
6000000
5999999.99992
5999999.99996
6000000.00013
5999999.99958
5999999.99862
6000000.00019
6000000.00253
5999999.99791
5999999.99985
5999999.99995
5999999.99558
6000000.00109
6000000.00062
6000000.00345
6000000.00149
5999999.99992
6000000.00083
6000000.00039
5999999.99783
6000000.00325
5999999.99729
6000000.00247
6000000.00128
6000000.00433
5999999.9997
5999999.99961
6000000.00597
6000000.00243
6000000.00273
6000000.00182
5999999.99613
5999999.99901
6000000.00224
6000000.00008
5999999.99736
5999999.99775
6000000.00176
5999999.997
5999999.99933
5999999.99737
6000000.00025
6000000.00213
5999999.99889
5999999.99889
5999999.99868
5999999.99984
5999999.99978
6000000.00079
6000000.00023
6000000.00031
5999999.99929
6000000.0013
6000000.0015
5999999.99772
6000000.00008
6000000.00011
6000000.00002
6000000.00011
6000000.00005
6000000.00055
6000000.00112
5999999.99842
6000000.00213
6000000.00143
5999999.99679
6000000.00435
5999999.99519
5999999.99897
6000000.00268
6000000.00658
6000000.00312
6000000.00186
6000000.0016
5999999.99338
5999999.99749
5999999.99838
5999999.99948
6000000.0027
6000000.00507
5999999.99366
5999999.99708
5999999.99463
6000000.00593
6000000.00281
6000000.00266
5999999.99897
6000000.00062
6000000.00079
6000000.00154
5999999.99952
5999999.99908
5999999.99972
6000000.00002
5999999.99999
6000000.00068
5999999.9992
6000000.00093
5999999.99944
6000000.00012
5999999.99881
5999999.99605
6000000.00251
6000000.0009
5999999.99581
5999999.99525
6000000.00616
5999999.99796
5999999.99568
6000000.00178
6000000.00645
5999999.99522
6000000.00373
5999999.99905
5999999.99865
6000000.00459
5999999.99956
6000000.00015
5999999.99999
6000000
6000000.00007
6000000.00001
6000000.00007
6000000.00002
6000000.00007
6000000.0002
6000000.00025
6000000.00003
6000000.00004
5999999.99971
6000000.00069
6000000.00156
5999999.99609
6000000.00341
6000000.00515
5999999.99854
6000000.00164
6000000.00163
6000000.00183
5999999.99949
6000000.00043
5999999.99342
6000000.00104
5999999.99922
6000000.00148
6000000.00199
5999999.99898
5999999.99873
5999999.99923
5999999.99929
6000000.00017
5999999.99886
6000000.00104
6000000.00213
5999999.99854
5999999.99946
5999999.99926
6000000.00066
6000000.00008
6000000
5999999.99996
5999999.99945
6000000.00055
5999999.99936
5999999.99773
6000000.00318
5999999.99686
6000000.0017
5999999.99922
5999999.9995
5999999.99973
5999999.9993
6000000.00199
5999999.99536
6000000.00204
5999999.99941
5999999.99952
6000000.00002
5999999.99944
5999999.99988
5999999.99986
6000000.0007
5999999.99893
5999999.99927
5999999.99999
5999999.99993
5999999.99992
5999999.99998
6000000.00009
5999999.99993
5999999.99981
6000000
5999999.99989
5999999.9999
6000000.00001
5999999.99978
6000000.00094
5999999.99986
6000000.00013
6000000.00014
6000000.0011
5999999.99849
6000000.00184
5999999.99692
6000000.00203
6000000.00128
6000000.00196
6000000.00248
5999999.99685
5999999.99951
5999999.99837
6000000.0019
5999999.99912
5999999.99771
6000000.00102
5999999.99872
5999999.99935
5999999.99978
6000000.00031
6000000.00373
6000000.00136
6000000.00332
5999999.99889
6000000.00029
6000000.00208
5999999.99533
6000000.00122
5999999.99675
6000000.00443
6000000.0024
5999999.99481
5999999.99521
5999999.99529
6000000.00537
6000000.00196
6000000.00591
5999999.99695
5999999.99741
6000000.0009
5999999.99456
5999999.99501
5999999.99734
5999999.99808
6000000.00165
5999999.99577
5999999.99738
5999999.99278
5999999.99987
5999999.9951
5999999.99778
5999999.99704
5999999.99695
5999999.99635
5999999.9953
6000000.0037
6000000.00086
6000000.00095
5999999.9955
6000000.0016
6000000.00007
5999999.99974
6000000.00053
5999999.99929
5999999.99999
5999999.99666
6000000.00368
5999999.99431
5999999.99448
6000000.00176
5999999.99471
5999999.99507
6000000.00615
5999999.99524
5999999.99399
6000000.00076
6000000.00166
5999999.99977
6000000.00075
6000000.00016
6000000.00008
5999999.99994
6000000.00049
5999999.99952
6000000.00045
5999999.99975
6000000.00016
6000000.00009
5999999.99992
5999999.99993
6000000.00003
6000000.00081
5999999.99928
5999999.9995
6000000.00127
5999999.9999
5999999.99993
5999999.99981
5999999.99956
5999999.99904
6000000.00026
6000000.00001
5999999.99992
5999999.99994
5999999.99955
6000000.00036
6000000.00155
5999999.99904
6000000.00096
6000000.00221
6000000.0024
5999999.99682
5999999.99789
6000000.0025
5999999.99963
6000000.00078
6000000.00055
5999999.99741
6000000.00237
6000000.00184
6000000.00028
5999999.9987
6000000.00008
5999999.998
6000000.00266
6000000.00043
6000000.00118
5999999.99901
5999999.99824
6000000.0051
6000000.00522
5999999.99278
5999999.99712
6000000.00191
6000000.00151
5999999.99881
6000000.00127
6000000.00001
6000000.00297
5999999.99906
6000000.00163
5999999.99971
5999999.99979
6000000
6000000.00004
5999999.99996
5999999.99998
5999999.99998
6000000.00001
6000000.00004
6000000.00014
6000000
6000000
6000000.00001
5999999.99998
6000000.00016
5999999.99999
6000000.00001
5999999.99993
5999999.99996
6000000.00014
6000000.00011
5999999.99995
6000000.00014
5999999.99999
6000000
5999999.9999
6000000.00015
5999999.99995
6000000.0001
5999999.99986
5999999.99953
5999999.99947
5999999.99999
6000000
6000000.00207
5999999.99934
5999999.99974
5999999.99989
6000000.0001
6000000.00003
6000000.0001
5999999.99993
6000000.00001
6000000
5999999.99997
5999999.99936
6000000.00056
5999999.99888
6000000.00267
5999999.99981
5999999.99887
6000000.00149
5999999.99875
6000000.00298
6000000.00384
5999999.99908
5999999.9997
6000000.00632
6000000.00087
6000000.00068
6000000.0006
5999999.99976
6000000.00004
6000000.00007
6000000.00026
6000000.00006
6000000.00006
6000000.00011
5999999.99952
6000000.00073
6000000.00031
6000000.00023
6000000.00019
5999999.99989
6000000.00002
5999999.99992
6000000.00002
5999999.99999
6000000.0007
5999999.9984
5999999.99769
6000000.00297
5999999.99788
6000000.00285
5999999.99722
5999999.99919
6000000
5999999.9974
5999999.99934
6000000.00305
5999999.99583
5999999.99438
6000000.0009
5999999.99412
5999999.99331
6000000.00143
5999999.99721
5999999.99927
5999999.99611
6000000.00199
6000000.00182
5999999.99739
6000000.00385
5999999.99809
5999999.99814
6000000.00197
6000000.00179
6000000.00016
5999999.99955
5999999.99981
6000000.00004
5999999.99992
5999999.99972
6000000.00118
5999999.99953
6000000.00152
5999999.99862
5999999.99851
6000000.00025
5999999.99892
5999999.99944
5999999.99817
5999999.99895
5999999.99898
5999999.99995
5999999.99896
6000000.00357
5999999.99946
5999999.99873
5999999.99973
5999999.99998
5999999.99996
5999999.99983
5999999.99983
6000000.00022
5999999.99998
5999999.99996
6000000.00014
6000000.00008
5999999.99998
6000000.00007
5999999.99998
6000000.00017
6000000.00008
6000000.0006
5999999.99791
5999999.9989
6000000.00069
6000000.00003
5999999.99998
5999999.99997
6000000.00001
5999999.99989
5999999.99981
6000000.00006
5999999.99992
5999999.99921
6000000.00054
5999999.99943
6000000.00085
5999999.99956
6000000.00002
6000000.00147
5999999.99956
6000000.0001
5999999.99994
6000000.00005
5999999.99991
6000000
5999999.99983
5999999.99991
5999999.99998
5999999.99985
5999999.99901
6000000.00024
5999999.99907
6000000.0026
5999999.99882
6000000.00062
6000000.00023
5999999.99985
6000000.00003
6000000.00083
5999999.99938
5999999.99562
6000000.00276
6000000.00018
6000000.00012
6000000.00036
6000000.00106
6000000.00066
5999999.9981
6000000.00317
6000000.00327
6000000.00024
5999999.99833
6000000.00252
6000000.00173
5999999.99837
6000000.00445
6000000.00035
6000000.00254
5999999.99688
5999999.99772
6000000.00088
5999999.99907
5999999.99993
5999999.99718
6000000.00337
6000000.00065
5999999.99932
6000000.00021
5999999.99844
6000000.00251
5999999.9986
6000000.00163
5999999.99575
6000000.00507
6000000.00416
5999999.99804
6000000.00135
5999999.99364
5999999.99309
6000000.00347
6000000.00269
6000000.00494
5999999.99881
5999999.99616
6000000.00432
5999999.99657
5999999.9986
5999999.99891
5999999.99862
6000000.00059
5999999.99939
6000000.00015
5999999.9997
5999999.99969
6000000.00019
5999999.99812
6000000.00153
5999999.9997
5999999.99935
6000000.00149
5999999.9988
6000000.00095
5999999.99662
6000000.0001
5999999.99999
5999999.99964
5999999.99848
5999999.99847
6000000.00146
6000000.00108
5999999.99947
6000000.0059
6000000.00235
5999999.99559
6000000.00263
5999999.99871
6000000.00585
6000000.00417
5999999.99722
5999999.99571
5999999.99882
6000000.00648
6000000.00202
5999999.99751
5999999.99682
5999999.99534
6000000.00297
5999999.99684
5999999.99513
5999999.99844
5999999.99465
6000000.00413
5999999.99737
5999999.99717
5999999.99881
6000000.00159
5999999.99754
5999999.99806
6000000.00152
6000000.00108
5999999.99699
5999999.99753
5999999.99604
5999999.99622
5999999.9971
5999999.99812
6000000.00051
5999999.99405
5999999.99474
6000000.00103
6000000.00015
5999999.99572
5999999.99592
5999999.99516
5999999.99422
6000000.00441
5999999.99747
5999999.99288
5999999.99971
5999999.9956
6000000.00193
6000000.00518
5999999.99254
5999999.99443
5999999.99763
6000000.00555
6000000.00127
5999999.99812
6000000.00352
6000000.00469
5999999.9998
6000000.00609
5999999.99618
5999999.99359
6000000.00371
6000000.00121
5999999.99937
5999999.99465
5999999.99634
6000000.00276
5999999.99598
5999999.99839
6000000.0021
5999999.99896
6000000.00292
6000000.00716
6000000.00328
5999999.99902
5999999.99526
5999999.9972
6000000.00584
6000000.00224
5999999.99561
5999999.9971
6000000.00088
6000000.00628
6000000.00099
5999999.99893
5999999.99983
6000000.00203
5999999.99843
5999999.99909
6000000.004
6000000.00176
5999999.99697
6000000.00268
5999999.99659
5999999.99966
5999999.99739
6000000.0006
6000000.00171
5999999.99403
6000000.00001
6000000.00113
5999999.99414
5999999.99745
6000000.00324
5999999.99816
5999999.99812
6000000.00295
5999999.99842
5999999.99655
5999999.99563
5999999.99828
5999999.99642
5999999.99928
5999999.9979
6000000.00689
5999999.99758
6000000.00041
6000000.00534
5999999.9986
6000000.00201
6000000.00004
6000000.00869
5999999.99706
6000000.00066
6000000.00638
6000000.00702
5999999.99889
5999999.99776
6000000.0101
6000000.00792
6000000.00617
5999999.99807
5999999.99785
6000000.00805
6000000.00856
6000000.00178
6000000.00673
6000000.00238
5999999.99482
6000000.0068
6000000.00805
6000000.00014
5999999.99715
6000000.00759
6000000.00264
5999999.99391
6000000.00239
6000000.00216
6000000.00915
6000000.00782
5999999.9976
6000000.00217
6000000.00725
5999999.99618
5999999.99925
6000000.00653
6000000.00935
6000000.00045
6000000.00627
6000000.00563
6000000.00487
5999999.99785
6000000.0011
6000000.0084
6000000.00954
6000000.0102
6000000.003
6000000.00288
6000000.00641
6000000.01041
5999999.9997
6000000.00286
6000000.00579
5999999.99657
6000000.00574
6000000.00527
6000000.00982
6000000.00421
6000000.00742
6000000.0058
5999999.99348
6000000.00688
6000000.0022
5999999.99838
6000000.0088
5999999.99884
5999999.99988
5999999.99871
6000000.00047
5999999.99825
5999999.99987
5999999.99885
5999999.99954
5999999.99933
5999999.99945
5999999.9974
5999999.99777
5999999.99959
5999999.9982
6000000.00021
5999999.99823
5999999.99897
5999999.99822
6000000.00019
5999999.99801
5999999.99734
5999999.99866
5999999.99971
5999999.99873
5999999.99877
5999999.99963
5999999.99757
5999999.99847
5999999.99933
5999999.99577
5999999.99833
6000000.00026
5999999.99934
5999999.99662
5999999.99944
5999999.99751
5999999.99986
5999999.99891
5999999.99875
5999999.99697
5999999.99914
6000000.00006
5999999.99785
5999999.99946
5999999.99969
5999999.99881
5999999.99883
5999999.99922
5999999.99668
5999999.99694
5999999.99947
5999999.9999
6000000.00026
6000000.00055
5999999.99836
5999999.99905
5999999.99793
5999999.99823
5999999.99835
5999999.9987
5999999.99962
6000000.00049
6000000.0021
5999999.99834
5999999.99938
5999999.99942
5999999.99983
5999999.99972
6000000.0007
5999999.99973
5999999.99954
6000000.00032
5999999.99979
5999999.99972
5999999.99972
5999999.99974
6000000.00045
6000000
5999999.9998
5999999.99964
6000000.00029
6000000.00039
5999999.99985
6000000.00027
5999999.99983
6000000.00038
5999999.99989
5999999.99973
6000000.00015
5999999.99993
6000000.00041
5999999.99984
6000000.00003
5999999.99949
6000000.00031
6000000.00039
6000000.00025
6000000.00054
5999999.99988
6000000.00047
6000000.00047
5999999.99972
6000000.0001
5999999.99985
6000000.00032
6000000.00007
5999999.99966
6000000.00043
6000000.00024
6000000.00045
6000000.0003
5999999.99957
5999999.99977
5999999.99974
6000000.00016
6000000.00005
6000000.00036
6000000.00041
5999999.99969
5999999.99996
6000000.00025
5999999.99997
6000000.00034
6000000.00016
6000000.00024
6000000.00044
5999999.99969
6000000.00058
6000000.00065
6000000.00092
6000000.00096
6000000.00106
6000000.00063
6000000.00095
6000000.0008
6000000.00123
6000000.00073
6000000.00078
6000000.00082
6000000.0008
6000000.00077
6000000.00081
6000000.00089
6000000.00095
6000000.00073
6000000.00086
6000000.00105
6000000.00087
6000000.00102
6000000.00112
6000000.00068
6000000.00101
6000000.00089
6000000.00084
6000000.00069
6000000.00054
6000000.00092
6000000.00086
6000000.00082
6000000.0009
6000000.00084
6000000.00117
6000000.00067
6000000.00091
6000000.00066
6000000.00083
6000000.00055
6000000.00079
6000000.00096
6000000.00095
6000000.00095
6000000.00087
6000000.00086
6000000.00092
6000000.00078
6000000.00094
6000000.00111
6000000.00112
6000000.00075
6000000.00084
6000000.00079
6000000.00094
6000000.00095
6000000.0009
6000000.00094
6000000.00096
6000000.00097
6000000.00091
6000000.00086
6000000.00114
6000000.00132
6000000.00085
5999999.99904
5999999.99875
5999999.99889
5999999.99902
5999999.99881
5999999.99927
5999999.99886
5999999.99883
5999999.99872
5999999.99877
5999999.99891
5999999.9991
5999999.99906
5999999.99891
5999999.99864
5999999.99881
5999999.99876
5999999.99906
5999999.9989
5999999.9991
5999999.99885
5999999.99879
5999999.99914
5999999.99904
5999999.9988
5999999.99891
5999999.99937
5999999.99883
5999999.99895
5999999.99907
5999999.99901
5999999.99943
5999999.99908
5999999.9991
5999999.99886
5999999.99888
5999999.99912
5999999.99876
5999999.9986
5999999.99872
5999999.99904
5999999.99908
5999999.99884
5999999.99905
5999999.99897
5999999.99898
5999999.99937
5999999.99909
5999999.99882
5999999.999
5999999.99887
5999999.99871
5999999.99886
5999999.99867
5999999.99895
5999999.9989
5999999.99903
5999999.99902
5999999.99892
5999999.99894
5999999.99886
5999999.99902
5999999.9989
5999999.99885
5999999.99954
5999999.99936
5999999.99943
5999999.99977
5999999.99968