/*--------------------------------*- C++ -*----------------------------------*\
  =========                 |
  \\      /  F ield         | OpenFOAM: The Open Source CFD Toolbox
   \\    /   O peration     | Website:  https://openfoam.org
    \\  /    A nd           | Version:  6
     \\/     M anipulation  |
\*---------------------------------------------------------------------------*/
FoamFile
{
    version     2.0;
    format      ascii;
    class       volVectorField;
    location    "4.63e-05";
    object      U;
}
// * * * * * * * * * * * * * * * * * * * * * * * * * * * * * * * * * * * * * //

dimensions      [0 1 -1 0 0 0 0];

internalField   nonuniform List<vector> 
8192
(
(-88.322 0 -2.76055836832e-10)
(-88.3219999996 0 -6.59732414815e-11)
(-88.3220000001 0 -6.72107780838e-11)
(-88.3220000003 0 -2.33403571082e-10)
(-88.3219999995 0 -6.10321708172e-11)
(-88.3219999997 0 1.79528803112e-11)
(-88.3220000003 0 -2.24234935678e-12)
(-88.322 0 7.92069309979e-11)
(-88.322 0 -2.37733988809e-10)
(-88.322 0 -5.53142632974e-10)
(-88.3219999999 0 -6.65244657185e-10)
(-88.322 0 3.44068525728e-10)
(-88.3220000002 0 6.36906861118e-10)
(-88.322 0 -6.96682688752e-10)
(-88.3219999999 0 -6.05059609359e-10)
(-88.3219999999 0 3.31728225242e-10)
(-88.3219999999 0 2.44999622361e-10)
(-88.3219999999 0 5.83177658304e-10)
(-88.3220000002 0 -4.11535728685e-10)
(-88.322 0 -5.2045647507e-10)
(-88.3219999997 0 2.57750339929e-10)
(-88.3220000003 0 3.64264481715e-10)
(-88.3220000003 0 -5.41172050092e-10)
(-88.3219999998 0 -5.34336465416e-10)
(-88.322 0 1.51641016854e-10)
(-88.3219999999 0 1.55985437987e-10)
(-88.3219999999 0 1.95985235581e-10)
(-88.3219999999 0 1.64209110422e-10)
(-88.3220000002 0 2.72393192036e-10)
(-88.3220000001 0 -1.36646904816e-10)
(-88.3219999999 0 1.9519626255e-10)
(-88.3219999997 0 -3.15919834075e-11)
(-88.321999999 0 1.1024370102e-10)
(-88.3220000017 0 5.01519516306e-10)
(-88.3220000024 0 -7.57577411004e-10)
(-88.3219999988 0 -5.9320791719e-10)
(-88.3219999997 0 -2.0363501169e-11)
(-88.3219999996 0 -5.30903968053e-10)
(-88.3219999987 0 1.72075429521e-10)
(-88.3220000006 0 1.52731357164e-10)
(-88.3220000001 0 -3.63337213403e-11)
(-88.3219999998 0 4.65309895549e-11)
(-88.3220000001 0 -1.22172201792e-11)
(-88.322 0 -1.44368044739e-11)
(-88.322 0 -5.33143729608e-11)
(-88.322 0 -3.19742825505e-11)
(-88.322 0 -1.73080986473e-11)
(-88.322 0 -1.66772913142e-11)
(-88.322 0 1.93814267539e-11)
(-88.3219999999 0 -7.69233227712e-11)
(-88.3219999999 0 9.90524954571e-11)
(-88.3220000005 0 -4.32370939384e-11)
(-88.3219999995 0 -1.88648898952e-10)
(-88.3219999994 0 3.03536673598e-10)
(-88.3220000011 0 1.68496654703e-10)
(-88.3220000006 0 -2.1467978285e-10)
(-88.3219999999 0 -3.80189468067e-11)
(-88.3219999998 0 -1.58671561292e-10)
(-88.3220000001 0 -3.70638993926e-11)
(-88.3219999992 0 -2.74406880661e-10)
(-88.3219999985 0 3.15668545942e-10)
(-88.3219999998 0 3.74515321694e-10)
(-88.3220000008 0 3.49463761063e-10)
(-88.3220000013 0 3.81499420088e-12)
(-88.322 0 -2.82269934926e-10)
(-88.3219999999 0 -7.93371810616e-11)
(-88.3220000001 0 1.00922034399e-10)
(-88.3219999997 0 7.65694690178e-12)
(-88.322 0 2.04728166948e-10)
(-88.3220000002 0 -1.10418529814e-10)
(-88.3219999996 0 3.84273195803e-11)
(-88.3220000005 0 5.51271849438e-12)
(-88.3220000012 0 -3.67611204993e-12)
(-88.3220000008 0 -5.30150988236e-11)
(-88.3219999983 0 5.87427375395e-11)
(-88.3219999974 0 -2.11204430481e-10)
(-88.3220000019 0 -2.17396857198e-11)
(-88.3220000024 0 -1.66664875514e-10)
(-88.3219999981 0 -2.81280853744e-10)
(-88.3219999984 0 2.69512616895e-10)
(-88.3219999996 0 1.94375524458e-10)
(-88.3220000015 0 1.44435688505e-10)
(-88.3220000021 0 -3.08314719684e-10)
(-88.3219999988 0 -1.79159536405e-10)
(-88.3219999985 0 -4.34180071966e-11)
(-88.3220000013 0 8.28704739312e-12)
(-88.3220000015 0 1.85880890782e-10)
(-88.3219999988 0 -6.57633208037e-11)
(-88.3219999986 0 4.10210913512e-10)
(-88.322 0 -2.07295209266e-10)
(-88.3220000001 0 3.08461130849e-10)
(-88.3219999999 0 2.77207977234e-10)
(-88.3220000004 0 -4.40167671843e-11)
(-88.322 0 3.09296534965e-11)
(-88.3219999999 0 5.87451473183e-11)
(-88.3220000004 0 1.18664151977e-11)
(-88.3219999999 0 -2.02131884422e-10)
(-88.3220000003 0 -4.31535850769e-10)
(-88.322 0 5.07387188809e-10)
(-88.3219999996 0 5.92680498164e-10)
(-88.3220000001 0 -5.60525236515e-13)
(-88.322 0 2.94882731355e-10)
(-88.322 0 -1.73227341931e-10)
(-88.322 0 -1.87068720109e-10)
(-88.322 0 1.13297033358e-10)
(-88.322 0 -6.76600698561e-11)
(-88.322 0 5.03142935946e-11)
(-88.322 0 -1.71117158035e-10)
(-88.322 0 -3.8509432787e-10)
(-88.322 0 -3.18985863498e-10)
(-88.322 0 -3.11135663814e-10)
(-88.322 0 -3.60445026376e-10)
(-88.322 0 -3.51404490306e-10)
(-88.322 0 -9.87848552131e-11)
(-88.322 0 2.93250445429e-10)
(-88.3220000001 0 -7.75143129578e-11)
(-88.3219999998 0 5.18118235288e-11)
(-88.322 0 -9.22765346412e-11)
(-88.3220000001 0 -2.62315743266e-10)
(-88.322 0 4.06554638852e-10)
(-88.322 0 -1.56078930216e-10)
(-88.3220000001 0 -1.79086072208e-10)
(-88.322 0 -3.85487918413e-10)
(-88.3219999999 0 8.01544353523e-10)
(-88.322 0 3.02650669332e-10)
(-88.3220000001 0 -7.82055722734e-10)
(-88.3220000001 0 -1.03060714231e-09)
(-88.322 0 -4.268596982e-10)
(-88.3219999994 0 6.12617846136e-11)
(-88.3219999989 0 8.09112633011e-11)
(-88.322 0 -2.45844441622e-11)
(-88.322 0 1.70790339188e-10)
(-88.3219999999 0 -1.28865494599e-10)
(-88.322 0 1.22803508582e-10)
(-88.322 0 -3.36771923253e-11)
(-88.322 0 -7.83764000629e-11)
(-88.3220000001 0 2.10031449637e-10)
(-88.3219999999 0 5.17602327831e-10)
(-88.3220000002 0 6.23151243757e-10)
(-88.3220000001 0 -2.58716397304e-10)
(-88.322 0 -5.58787333068e-10)
(-88.3220000005 0 5.22136737872e-10)
(-88.321999999 0 5.44480285224e-10)
(-88.3219999989 0 -3.4768242094e-10)
(-88.3220000001 0 -2.52078357648e-10)
(-88.3220000009 0 -5.30820135146e-10)
(-88.3220000008 0 4.38900264501e-10)
(-88.3219999995 0 4.84910562336e-10)
(-88.3219999993 0 -2.2556993127e-10)
(-88.3219999998 0 -2.20265353176e-10)
(-88.3220000004 0 5.19851452778e-10)
(-88.3219999994 0 5.29161140449e-10)
(-88.3220000003 0 -8.0012137675e-11)
(-88.322 0 -1.4373559987e-10)
(-88.3219999989 0 -8.31889083512e-11)
(-88.3220000007 0 7.63486336025e-11)
(-88.3220000007 0 -4.85876862761e-11)
(-88.3219999999 0 3.25977125532e-11)
(-88.322 0 8.77016702401e-11)
(-88.3220000003 0 -1.31559309135e-11)
(-88.322 0 -4.41878779266e-10)
(-88.322 0 4.16044448817e-10)
(-88.3220000001 0 5.8607233198e-10)
(-88.322 0 -3.59958791589e-10)
(-88.3220000003 0 -6.46448231284e-10)
(-88.322 0 7.83812861998e-10)
(-88.3219999997 0 3.84983205815e-10)
(-88.322 0 -3.60148777205e-10)
(-88.322 0 -4.17994723527e-10)
(-88.322 0 1.65440875142e-10)
(-88.3220000004 0 -2.64086743665e-10)
(-88.322000001 0 -5.96640127581e-11)
(-88.3220000003 0 -3.17331203099e-10)
(-88.3219999998 0 5.71924548486e-11)
(-88.322 0 -5.56339296743e-10)
(-88.3219999999 0 -5.82944792183e-10)
(-88.3219999995 0 4.57210197137e-10)
(-88.3219999987 0 1.8931865023e-11)
(-88.3219999999 0 -3.56996441872e-10)
(-88.3220000009 0 1.6512273317e-10)
(-88.3219999995 0 -4.22561450593e-10)
(-88.322 0 3.86785697552e-10)
(-88.322 0 5.47506077178e-11)
(-88.3220000004 0 -3.30696651869e-10)
(-88.3220000012 0 -3.46092746312e-10)
(-88.3220000004 0 -3.65253255883e-10)
(-88.3219999983 0 -1.61608388587e-10)
(-88.3219999979 0 -1.69987958183e-10)
(-88.3220000018 0 -1.47811019675e-10)
(-88.3220000025 0 7.98321922769e-11)
(-88.322 0 4.98858077286e-11)
(-88.3219999999 0 6.86258742338e-11)
(-88.322 0 5.93530353126e-10)
(-88.322 0 1.7543243569e-10)
(-88.322 0 -2.79360341284e-11)
(-88.322 0 1.47532821878e-10)
(-88.322 0 -1.72065026754e-10)
(-88.322 0 3.28456783797e-11)
(-88.322 0 1.15095616012e-11)
(-88.322 0 3.45838406584e-11)
(-88.322 0 2.03241654127e-11)
(-88.322 0 8.74067407517e-11)
(-88.3219999998 0 -2.63864991106e-11)
(-88.3219999998 0 1.54893509353e-10)
(-88.3220000004 0 -7.96448916625e-12)
(-88.3220000001 0 3.43021811623e-10)
(-88.3219999998 0 3.20054257938e-10)
(-88.322 0 -2.57564199128e-10)
(-88.322 0 -1.86396619373e-10)
(-88.322 0 -2.61976951769e-10)
(-88.322 0 4.49229313986e-10)
(-88.322 0 4.170665918e-10)
(-88.322 0 -4.75219073289e-10)
(-88.3219999999 0 -5.10523803223e-10)
(-88.322 0 3.08277195918e-10)
(-88.322 0 4.73121259122e-10)
(-88.322 0 -1.87691231086e-10)
(-88.322 0 5.48227580424e-10)
(-88.3219999996 0 -1.94483066576e-10)
(-88.3219999998 0 2.85185647041e-11)
(-88.3220000005 0 -1.04822060559e-10)
(-88.3219999997 0 -2.4030122515e-10)
(-88.3219999999 0 7.65575041794e-11)
(-88.3220000014 0 -8.07603784853e-11)
(-88.321999999 0 5.49935229834e-12)
(-88.3219999983 0 -7.44834971769e-11)
(-88.3220000015 0 4.08015212504e-11)
(-88.322000002 0 8.7833558403e-11)
(-88.3219999979 0 -6.63808237576e-11)
(-88.321999998 0 3.40303349087e-10)
(-88.3220000022 0 -1.66730931716e-11)
(-88.3220000015 0 3.3038548196e-11)
(-88.3219999989 0 -5.90258757068e-11)
(-88.3219999998 0 -6.01658320296e-12)
(-88.3220000004 0 -6.85503450946e-11)
(-88.3220000001 0 1.73002371982e-10)
(-88.3219999998 0 4.1477925186e-10)
(-88.3220000005 0 3.16700230533e-10)
(-88.3220000013 0 3.294435718e-10)
(-88.321999998 0 2.51361140992e-10)
(-88.321999999 0 4.83208739642e-10)
(-88.3220000016 0 1.98638806626e-10)
(-88.3219999998 0 -3.44127259545e-10)
(-88.3220000003 0 1.07724075715e-10)
(-88.3219999993 0 -1.73842080002e-10)
(-88.3219999991 0 2.46119902855e-10)
(-88.3220000014 0 5.32374363058e-10)
(-88.3220000007 0 -5.1497658717e-10)
(-88.322 0 -1.40039942407e-10)
(-88.3219999998 0 4.16475196252e-10)
(-88.3219999997 0 6.93331676997e-11)
(-88.3219999998 0 -4.34097592526e-10)
(-88.3219999995 0 -9.71740209904e-10)
(-88.3219999998 0 8.12714943811e-10)
(-88.3220000001 0 9.02903110668e-10)
(-88.322 0 6.91838687701e-10)
(-88.3220000004 0 -2.98334325521e-10)
(-88.3220000001 0 -1.03958688774e-10)
(-88.322 0 1.95156382736e-10)
(-88.3220000003 0 -3.26416291365e-11)
(-88.322 0 -4.90913669348e-11)
(-88.3219999996 0 -1.13774700042e-11)
(-88.322 0 5.34268177099e-12)
(-88.322 0 2.64460083646e-11)
(-88.322 0 1.98126478637e-11)
(-88.322 0 -3.86951623171e-12)
(-88.322 0 5.69764137621e-11)
(-88.3220000001 0 -2.31246906138e-10)
(-88.3219999997 0 -2.4511004849e-10)
(-88.3219999999 0 2.61404009756e-11)
(-88.3220000002 0 -2.30670332717e-11)
(-88.322 0 3.06321682938e-11)
(-88.3220000001 0 1.31761794237e-10)
(-88.3219999996 0 1.33255360137e-10)
(-88.3219999995 0 -1.94134943302e-11)
(-88.3220000013 0 2.90113339183e-12)
(-88.3220000011 0 2.44959726551e-11)
(-88.3219999982 0 1.93369988584e-11)
(-88.3219999985 0 6.60666654906e-11)
(-88.3220000004 0 -1.23900130111e-10)
(-88.3220000001 0 1.12524007735e-10)
(-88.3220000001 0 3.48983368257e-12)
(-88.3219999999 0 2.33770760073e-10)
(-88.3220000005 0 2.73524091337e-10)
(-88.3220000011 0 3.38364832679e-10)
(-88.3219999995 0 -2.19637889603e-11)
(-88.3219999996 0 1.53558718792e-10)
(-88.3220000004 0 3.68835813414e-10)
(-88.322 0 -2.86609804043e-11)
(-88.322 0 -5.08370674651e-10)
(-88.3219999999 0 -7.2256760449e-10)
(-88.3220000002 0 1.56420440775e-10)
(-88.3219999998 0 8.07108178677e-10)
(-88.3219999999 0 -1.01548436421e-09)
(-88.3220000003 0 -2.78258676357e-10)
(-88.322 0 1.79713573983e-10)
(-88.322 0 3.66804810932e-10)
(-88.322 0 -1.41062969413e-10)
(-88.322 0 2.31956474374e-10)
(-88.322 0 6.41010094466e-11)
(-88.322 0 2.91870800441e-10)
(-88.322 0 -4.46385510891e-11)
(-88.3220000001 0 5.54319792481e-10)
(-88.3219999997 0 5.05002475976e-10)
(-88.3219999997 0 -3.98597681238e-10)
(-88.3220000003 0 -1.12501802915e-10)
(-88.322 0 2.71194395757e-10)
(-88.3220000006 0 -1.41085912314e-11)
(-88.3219999993 0 3.39987304872e-10)
(-88.3219999986 0 -3.84607752553e-10)
(-88.3220000015 0 -6.07916976814e-11)
(-88.3220000016 0 -2.26836429749e-10)
(-88.3219999992 0 1.32897002431e-10)
(-88.3219999999 0 1.17669691178e-10)
(-88.3219999998 0 -3.02652031733e-10)
(-88.322 0 7.35148285899e-10)
(-88.3219999993 0 6.02236627605e-10)
(-88.3219999987 0 3.74030225175e-10)
(-88.3220000002 0 1.57755891036e-10)
(-88.3220000004 0 -1.9098881677e-12)
(-88.3220000002 0 -9.55636402714e-11)
(-88.3219999991 0 -1.95235787626e-10)
(-88.322 0 3.71472314872e-10)
(-88.3220000004 0 5.86624923878e-10)
(-88.322 0 -2.2709398969e-11)
(-88.3219999999 0 4.21257702727e-10)
(-88.322 0 3.30553409638e-10)
(-88.322 0 -4.03580988325e-10)
(-88.322 0 1.13784448284e-11)
(-88.3219999999 0 8.82013308781e-11)
(-88.3220000003 0 -3.6236934564e-11)
(-88.3220000003 0 1.60106863003e-10)
(-88.3219999999 0 1.6712908502e-10)
(-88.3219999998 0 -4.71379429865e-10)
(-88.3219999999 0 4.84135088928e-10)
(-88.3219999997 0 3.9159144775e-10)
(-88.3219999998 0 4.95123400076e-10)
(-88.3220000003 0 1.14268909945e-10)
(-88.3220000003 0 -6.29927108316e-10)
(-88.322 0 -2.38767725143e-10)
(-88.3219999999 0 8.54968875784e-10)
(-88.3219999999 0 1.04132245347e-09)
(-88.3220000003 0 -5.95815274057e-10)
(-88.3219999999 0 -5.93521067063e-10)
(-88.3219999998 0 -4.20642559482e-10)
(-88.3219999998 0 -4.93742466177e-11)
(-88.3219999992 0 1.12440857018e-10)
(-88.3219999996 0 -4.09130133817e-10)
(-88.3220000012 0 4.88037532764e-10)
(-88.3220000001 0 6.4566147024e-10)
(-88.3219999992 0 -9.23536322269e-11)
(-88.3220000019 0 -3.52743778134e-10)
(-88.3220000007 0 8.93026670339e-11)
(-88.3219999995 0 1.45574966308e-10)
(-88.3220000002 0 1.11500729966e-10)
(-88.321999999 0 -1.08077293386e-10)
(-88.3220000003 0 -6.97875680783e-12)
(-88.3220000001 0 -5.56647376386e-11)
(-88.3219999999 0 5.33183233513e-12)
(-88.3220000003 0 4.73414082481e-11)
(-88.3219999996 0 3.98239633012e-11)
(-88.322 0 -1.78327635262e-11)
(-88.322 0 1.13787112114e-11)
(-88.322 0 7.74525835323e-12)
(-88.322 0 7.15976227954e-12)
(-88.322 0 1.30588786009e-11)
(-88.3220000001 0 -6.62029334943e-11)
(-88.3219999999 0 2.70065085154e-10)
(-88.3220000001 0 -1.8427971192e-10)
(-88.3220000002 0 -7.19400425011e-11)
(-88.3219999996 0 -1.4277497027e-11)
(-88.3220000002 0 7.12117426791e-11)
(-88.322 0 2.57106965738e-10)
(-88.3219999999 0 -4.15471114993e-10)
(-88.3220000012 0 -4.3692146696e-10)
(-88.3220000002 0 2.97251118519e-10)
(-88.3219999994 0 3.16468831263e-10)
(-88.3220000007 0 4.14274948292e-11)
(-88.3219999984 0 3.80568979739e-10)
(-88.321999998 0 -8.36306000704e-11)
(-88.3220000002 0 4.28528069821e-10)
(-88.3220000006 0 -2.61483146662e-10)
(-88.3220000008 0 -7.58413426126e-11)
(-88.3220000009 0 -2.37931337355e-10)
(-88.3220000004 0 4.51350164847e-10)
(-88.3219999991 0 2.20002403285e-11)
(-88.3219999985 0 -2.42865648615e-10)
(-88.3220000012 0 4.26591384499e-11)
(-88.3220000003 0 2.52765853455e-11)
(-88.3219999989 0 4.60050439489e-11)
(-88.3220000017 0 -7.70643610149e-11)
(-88.3220000007 0 5.84727498189e-11)
(-88.3219999991 0 -1.55521006612e-10)
(-88.3220000001 0 -1.65909394381e-10)
(-88.3219999999 0 4.03011499975e-10)
(-88.3219999997 0 -3.75696860104e-10)
(-88.3220000011 0 -3.44562677853e-10)
(-88.3219999993 0 -6.09721937248e-11)
(-88.3219999984 0 -1.19349801921e-10)
(-88.3219999999 0 -1.07759194421e-13)
(-88.3220000008 0 -2.17102466687e-10)
(-88.3220000019 0 -1.087561827e-10)
(-88.3220000001 0 2.93315205749e-11)
(-88.3219999983 0 -1.26234757211e-12)
(-88.3219999986 0 8.52891294678e-13)
(-88.3220000011 0 -2.640124662e-11)
(-88.3220000018 0 4.47070189401e-13)
(-88.322 0 1.22531036841e-11)
(-88.321999999 0 -7.29412771049e-11)
(-88.3219999991 0 4.47418798204e-11)
(-88.3220000007 0 -2.93031429153e-10)
(-88.3219999997 0 -3.28496736158e-10)
(-88.321999999 0 -5.44779001565e-10)
(-88.3220000007 0 2.64098443343e-10)
(-88.3220000017 0 -4.20840154655e-10)
(-88.3220000001 0 -3.63710608524e-10)
(-88.321999999 0 7.69114732275e-10)
(-88.3219999999 0 1.89495839772e-10)
(-88.3220000004 0 -1.21384021794e-10)
(-88.3220000004 0 -4.15061024983e-10)
(-88.3219999997 0 -1.37671398292e-10)
(-88.3219999999 0 5.9565842964e-10)
(-88.322 0 -1.45514542922e-10)
(-88.322 0 -9.34819249102e-11)
(-88.322 0 4.04773247354e-11)
(-88.322 0 7.5207356468e-11)
(-88.322 0 -1.69104651808e-10)
(-88.322 0 5.61049069947e-11)
(-88.322 0 3.17390405322e-11)
(-88.3220000001 0 7.53077547988e-12)
(-88.3219999996 0 -9.15381412485e-12)
(-88.322 0 -2.88660279017e-11)
(-88.3220000004 0 2.76768409805e-11)
(-88.322 0 -3.0500874152e-11)
(-88.3219999998 0 1.01835846467e-10)
(-88.3220000001 0 -3.69032384833e-11)
(-88.3220000003 0 6.41477577247e-11)
(-88.3219999998 0 -6.98016078052e-11)
(-88.322 0 4.62648390226e-11)
(-88.3220000002 0 3.23914711033e-10)
(-88.3219999998 0 3.36843838181e-11)
(-88.3219999999 0 8.58814663421e-11)
(-88.3220000001 0 4.64860697214e-10)
(-88.3219999999 0 -4.89603683077e-10)
(-88.3219999997 0 -4.30538399161e-10)
(-88.3219999997 0 6.36497759297e-11)
(-88.3220000001 0 2.33241157464e-10)
(-88.3220000004 0 -9.65480740909e-11)
(-88.322 0 8.51645929093e-11)
(-88.3220000004 0 1.88810963476e-10)
(-88.3219999999 0 -3.51152753716e-10)
(-88.3219999999 0 -6.09774272963e-10)
(-88.322 0 1.97284299681e-10)
(-88.3220000001 0 -4.32390530245e-10)
(-88.3219999999 0 -3.50322841926e-10)
(-88.3220000001 0 3.99423700976e-10)
(-88.3220000005 0 -2.18805616498e-11)
(-88.3219999987 0 -1.16292789435e-10)
(-88.3220000007 0 6.71364334356e-11)
(-88.3220000019 0 -1.5573295099e-10)
(-88.3219999993 0 -1.06223426437e-10)
(-88.3219999993 0 3.52780339971e-10)
(-88.3219999996 0 -4.82929299226e-10)
(-88.3219999999 0 -3.52115635574e-10)
(-88.3219999999 0 -4.80003486786e-10)
(-88.3219999998 0 -1.06308947689e-11)
(-88.3220000001 0 4.2888900827e-10)
(-88.322 0 2.8591772967e-11)
(-88.322 0 -3.70165079468e-10)
(-88.3219999999 0 -6.5923753712e-10)
(-88.3220000003 0 1.81222267066e-10)
(-88.322 0 2.03003127252e-10)
(-88.3219999997 0 2.09299888765e-10)
(-88.3220000003 0 -2.69517753731e-10)
(-88.3219999999 0 -2.7888254682e-10)
(-88.3220000001 0 5.2190616692e-11)
(-88.322 0 -4.67485382127e-10)
(-88.322 0 -4.31845448445e-10)
(-88.3220000002 0 -1.00071374943e-10)
(-88.3219999995 0 4.02626268173e-10)
(-88.3219999997 0 -7.22405381791e-11)
(-88.3220000013 0 -8.20905118142e-11)
(-88.3220000015 0 -1.07227395534e-10)
(-88.321999999 0 -4.69672063537e-11)
(-88.3219999981 0 2.05644346727e-10)
(-88.3220000001 0 -3.96351535901e-11)
(-88.3220000013 0 6.87968496259e-11)
(-88.322 0 -3.06563604948e-11)
(-88.3219999993 0 -1.91334619624e-11)
(-88.3220000004 0 3.54750330409e-11)
(-88.322 0 -3.16407566101e-12)
(-88.3219999996 0 -1.09752210274e-11)
(-88.3220000001 0 -3.49593192312e-11)
(-88.322 0 -2.38018640395e-11)
(-88.3220000002 0 4.18057987925e-11)
(-88.3219999998 0 -1.76010338862e-10)
(-88.3220000001 0 4.09293551428e-11)
(-88.322 0 9.98169177852e-11)
(-88.3219999996 0 -1.4232170129e-10)
(-88.3220000002 0 -1.48355110655e-10)
(-88.322 0 9.37839276133e-11)
(-88.3219999999 0 5.43370793286e-10)
(-88.3220000005 0 5.46341619083e-10)
(-88.3220000002 0 -2.90468410997e-10)
(-88.3219999999 0 -3.2901616578e-10)
(-88.3219999998 0 -2.00282890747e-10)
(-88.3219999996 0 -4.4223855442e-10)
(-88.3219999998 0 1.57887299692e-10)
(-88.3219999992 0 -4.10648793537e-10)
(-88.3219999993 0 3.4940448187e-10)
(-88.3220000012 0 -1.57975088069e-10)
(-88.3220000004 0 1.31624199813e-10)
(-88.3220000002 0 -2.66158291555e-10)
(-88.3220000001 0 2.19237860703e-12)
(-88.322 0 -4.21216551031e-11)
(-88.322 0 -3.5015311026e-12)
(-88.322 0 -7.0150445919e-11)
(-88.322 0 8.06492894576e-11)
(-88.322 0 3.67325435654e-11)
(-88.322 0 -8.82324697367e-11)
(-88.3220000001 0 1.4910763006e-10)
(-88.322 0 1.53627367682e-10)
(-88.322 0 -4.60345465519e-10)
(-88.322 0 5.37877458457e-10)
(-88.322 0 5.35704648975e-10)
(-88.322 0 8.56891462288e-11)
(-88.322 0 1.19408438539e-10)
(-88.322 0 -2.56855918489e-11)
(-88.322 0 7.81014632217e-11)
(-88.322 0 -1.47289018908e-11)
(-88.322 0 3.95654526242e-12)
(-88.322 0 6.00295335392e-12)
(-88.322 0 -2.23417026175e-11)
(-88.322 0 1.53282152508e-11)
(-88.322 0 -8.1279816764e-12)
(-88.322 0 1.3404374338e-10)
(-88.322 0 -5.1653259997e-11)
(-88.322 0 -4.25139996401e-11)
(-88.322 0 6.62825346657e-11)
(-88.322 0 -2.63570772035e-11)
(-88.322 0 3.44438671937e-11)
(-88.322 0 -1.69660541078e-10)
(-88.322 0 4.24264192126e-11)
(-88.322 0 -7.27720802735e-11)
(-88.322 0 -4.41482338968e-11)
(-88.322 0 2.08798477584e-10)
(-88.3220000003 0 -1.3454006882e-10)
(-88.3219999999 0 1.49377379161e-10)
(-88.3219999997 0 -1.75203164751e-10)
(-88.3220000001 0 -7.16733128798e-10)
(-88.322 0 1.54206491172e-10)
(-88.322 0 2.94408665686e-10)
(-88.322 0 -1.72276584308e-11)
(-88.322 0 -7.52874572839e-11)
(-88.322 0 1.74801204176e-10)
(-88.322 0 -8.11439983463e-11)
(-88.322 0 -2.90448259988e-11)
(-88.322 0 -2.07132160602e-11)
(-88.322 0 -5.45259095148e-11)
(-88.322 0 1.28527963411e-10)
(-88.3219999998 0 -1.31089957625e-11)
(-88.3220000003 0 1.8170815069e-10)
(-88.3220000003 0 -4.78162146327e-11)
(-88.3219999996 0 -6.80482779769e-11)
(-88.3219999989 0 -1.48970715906e-10)
(-88.321999999 0 6.67844550893e-11)
(-88.3220000018 0 1.21512127715e-10)
(-88.322000002 0 -2.42783975849e-10)
(-88.3219999995 0 -1.02229269333e-10)
(-88.3220000001 0 -6.26869380141e-11)
(-88.3219999994 0 -1.00175281136e-10)
(-88.3219999998 0 4.33400835513e-11)
(-88.3219999993 0 5.75937063243e-11)
(-88.3219999992 0 -9.87002955359e-10)
(-88.3220000005 0 -8.01103436863e-10)
(-88.322 0 -2.31846033129e-10)
(-88.3219999996 0 1.13691875833e-10)
(-88.322 0 1.1924407725e-10)
(-88.3219999999 0 -1.48650504879e-10)
(-88.322 0 -4.72728508188e-11)
(-88.3219999998 0 6.28037349392e-11)
(-88.3219999999 0 5.36085905263e-11)
(-88.3220000003 0 -1.1619994571e-10)
(-88.322 0 -1.28286152903e-10)
(-88.322 0 -3.50638476738e-11)
(-88.322 0 -5.8490707097e-11)
(-88.322 0 2.1760759895e-12)
(-88.3219999999 0 -2.25870864773e-11)
(-88.3220000001 0 -6.26926036623e-12)
(-88.3220000001 0 -2.28995261042e-11)
(-88.3219999999 0 -2.94091051963e-11)
(-88.322 0 -3.74410125837e-11)
(-88.322 0 -3.12828584651e-11)
(-88.322 0 -6.35614881901e-12)
(-88.322 0 4.5587879409e-11)
(-88.322 0 -1.64648928427e-10)
(-88.3219999999 0 -6.80784188639e-11)
(-88.3219999999 0 4.63975010235e-10)
(-88.322 0 3.28321850155e-10)
(-88.3220000001 0 -4.50090533064e-10)
(-88.3220000001 0 -3.45193248259e-10)
(-88.322 0 -1.16707513245e-10)
(-88.3219999999 0 6.25943606717e-11)
(-88.3220000002 0 -1.53777249068e-10)
(-88.3220000003 0 1.15018232096e-10)
(-88.322 0 -1.45163724391e-10)
(-88.3220000001 0 -3.98589191987e-10)
(-88.3219999997 0 -3.03627917333e-10)
(-88.3219999991 0 2.17540934429e-10)
(-88.3220000014 0 -4.07295699834e-10)
(-88.3220000015 0 -4.49214664991e-10)
(-88.3219999992 0 -4.02966593134e-10)
(-88.3219999999 0 4.31498644853e-10)
(-88.3219999994 0 3.3222450053e-10)
(-88.3219999991 0 -3.63397858102e-10)
(-88.3220000002 0 -2.44348591754e-10)
(-88.322 0 5.01449781659e-10)
(-88.322 0 1.0777084667e-10)
(-88.322 0 -3.25676142723e-10)
(-88.322 0 -5.33960664569e-10)
(-88.322 0 2.38430086404e-10)
(-88.3220000001 0 -2.36741012924e-10)
(-88.3219999999 0 -7.37608827636e-11)
(-88.3219999997 0 -5.02292354966e-10)
(-88.322 0 4.23578101911e-10)
(-88.3220000001 0 -1.11890282987e-10)
(-88.322 0 5.98655416669e-11)
(-88.3220000005 0 2.45492946642e-10)
(-88.3219999998 0 -3.77604913542e-10)
(-88.3219999994 0 -8.91195210357e-10)
(-88.3220000011 0 -1.0576676808e-09)
(-88.3220000007 0 -3.84860717176e-10)
(-88.3219999995 0 9.44363333342e-10)
(-88.3219999998 0 5.51419054667e-10)
(-88.3219999993 0 -7.36761666821e-11)
(-88.3219999995 0 -6.51077263921e-10)
(-88.3220000012 0 6.98872602919e-10)
(-88.322000001 0 -2.64287105983e-11)
(-88.3219999996 0 -1.71646269091e-10)
(-88.3219999995 0 -2.23920774095e-11)
(-88.322 0 1.05340226334e-10)
(-88.3220000006 0 5.71889611954e-11)
(-88.3220000003 0 2.12753644448e-10)
(-88.3219999996 0 -2.14074075453e-10)
(-88.3219999999 0 1.62696918322e-10)
(-88.3220000004 0 -2.5198241735e-10)
(-88.3220000003 0 1.9468183182e-10)
(-88.3219999998 0 2.32881428231e-10)
(-88.322 0 -2.00353915536e-10)
(-88.3219999999 0 -3.99376018899e-10)
(-88.322 0 -1.40694588708e-10)
(-88.322 0 -4.47237614234e-10)
(-88.322 0 -4.3839407254e-10)
(-88.322 0 -1.65644007524e-10)
(-88.322 0 7.53563969271e-11)
(-88.322 0 3.30228190875e-11)
(-88.322 0 9.08748128013e-11)
(-88.3219999999 0 -3.27074938022e-10)
(-88.3220000003 0 -6.72159261998e-10)
(-88.3220000002 0 3.08293416955e-10)
(-88.3219999987 0 3.09950878939e-10)
(-88.3219999992 0 7.33446816906e-10)
(-88.3220000019 0 -4.42884796062e-10)
(-88.3220000013 0 -4.06141561047e-10)
(-88.3219999993 0 2.86461095178e-10)
(-88.3219999992 0 2.7524417825e-10)
(-88.3220000001 0 2.73411378795e-10)
(-88.322 0 1.03980578377e-10)
(-88.3220000001 0 2.89542758391e-10)
(-88.322000001 0 1.0154355465e-10)
(-88.3220000002 0 2.76523992395e-11)
(-88.3219999987 0 9.14062894996e-11)
(-88.3220000002 0 -1.26816579346e-10)
(-88.3220000013 0 -3.80156433948e-10)
(-88.3220000003 0 5.0972003902e-10)
(-88.3219999981 0 7.36030089388e-10)
(-88.3219999982 0 4.55867084437e-10)
(-88.3220000016 0 7.06015008998e-10)
(-88.3220000011 0 -4.5559630095e-10)
(-88.3219999984 0 -2.86556507695e-11)
(-88.3219999993 0 1.6636048158e-11)
(-88.3220000017 0 -5.55574829815e-11)
(-88.3220000012 0 5.33402326194e-11)
(-88.3219999988 0 -8.40316260004e-11)
(-88.3219999994 0 3.84244844037e-11)
(-88.3220000006 0 -1.09739938028e-10)
(-88.3220000005 0 -2.75517715145e-10)
(-88.3219999989 0 2.22005354259e-10)
(-88.3219999991 0 3.09366396833e-10)
(-88.3220000011 0 3.98816388789e-10)
(-88.3219999995 0 -3.28307782482e-10)
(-88.3220000004 0 -3.35122359321e-10)
(-88.322000001 0 6.31690521176e-10)
(-88.3220000003 0 8.34022608614e-11)
(-88.3220000008 0 1.07414051317e-10)
(-88.3219999981 0 3.42033412989e-10)
(-88.3219999977 0 5.26680553838e-10)
(-88.3220000021 0 6.0879668462e-10)
(-88.3220000016 0 -2.20272655701e-10)
(-88.3219999982 0 -3.42610929242e-10)
(-88.3219999981 0 -1.85959943764e-10)
(-88.322000001 0 4.25145158641e-10)
(-88.3220000006 0 3.73807054134e-10)
(-88.3219999994 0 2.81673576131e-10)
(-88.322 0 -1.6790088697e-10)
(-88.3219999998 0 -2.0274162539e-10)
(-88.3220000003 0 1.21381278266e-10)
(-88.322 0 -2.46317669845e-11)
(-88.3219999999 0 -5.55768716328e-11)
(-88.3219999999 0 -9.92940329955e-11)
(-88.3219999993 0 1.07843708757e-10)
(-88.3220000007 0 8.82651747125e-11)
(-88.3220000013 0 3.41384080044e-11)
(-88.3219999998 0 -3.06239721488e-11)
(-88.322 0 -2.7336350881e-10)
(-88.3220000004 0 -3.16272937797e-11)
(-88.3219999996 0 -7.60476595454e-11)
(-88.3219999991 0 -9.3866137945e-11)
(-88.3219999995 0 6.74620792017e-11)
(-88.322 0 -9.3116896716e-11)
(-88.3220000007 0 -1.08308847538e-11)
(-88.3220000016 0 2.31755073997e-12)
(-88.3219999989 0 -6.64887294625e-11)
(-88.321999998 0 1.8521614433e-10)
(-88.321999999 0 7.50433741936e-12)
(-88.3220000014 0 -3.3237729058e-10)
(-88.3220000023 0 -2.21099592678e-10)
(-88.3219999987 0 3.18554653021e-10)
(-88.3219999987 0 4.38593330842e-10)
(-88.322 0 1.20799186173e-10)
(-88.3220000001 0 -4.62703863934e-11)
(-88.3220000001 0 1.57985148895e-10)
(-88.3220000003 0 -8.40921478107e-11)
(-88.3220000005 0 1.55752721291e-10)
(-88.3220000001 0 3.99852231251e-10)
(-88.322 0 3.03552659115e-10)
(-88.3219999999 0 -2.15196059536e-10)
(-88.3220000003 0 4.95457537445e-10)
(-88.3219999995 0 2.83011538954e-10)
(-88.3219999991 0 5.96424993288e-10)
(-88.322 0 -4.87931816465e-10)
(-88.3220000012 0 -3.29241520013e-10)
(-88.3220000006 0 5.04696390867e-10)
(-88.3219999994 0 2.18564927604e-10)
(-88.322 0 -5.0372764388e-10)
(-88.322 0 -1.00546376105e-10)
(-88.3220000001 0 3.11540085067e-10)
(-88.322 0 5.55536761237e-10)
(-88.322 0 -3.77581630862e-10)
(-88.3220000007 0 2.23120548069e-10)
(-88.3219999993 0 4.51307018046e-11)
(-88.3219999985 0 5.0937998505e-10)
(-88.3219999997 0 -4.47787129884e-10)
(-88.3220000015 0 2.42095223496e-11)
(-88.3220000015 0 1.30824263171e-10)
(-88.3219999985 0 -4.95608055008e-10)
(-88.321999999 0 1.09629413946e-10)
(-88.3220000004 0 7.18422153727e-10)
(-88.3220000005 0 6.88268265336e-10)
(-88.3219999999 0 4.14742602796e-10)
(-88.3219999991 0 -4.17893494056e-10)
(-88.3220000012 0 -5.69770951134e-10)
(-88.3220000011 0 4.83121813928e-10)
(-88.3219999995 0 4.48225019225e-10)
(-88.3219999997 0 -3.62867129271e-10)
(-88.322 0 -4.89121939444e-10)
(-88.3219999999 0 1.23054769239e-10)
(-88.322 0 -1.6646821863e-10)
(-88.322 0 -3.37141205558e-11)
(-88.322 0 1.04391183178e-10)
(-88.322 0 -1.8073741284e-10)
(-88.322 0 1.79973169105e-10)
(-88.322 0 -9.24092997702e-11)
(-88.322 0 1.51280283626e-10)
(-88.322 0 -2.01382144678e-10)
(-88.322 0 -1.19921225336e-10)
(-88.3220000002 0 -1.86518384326e-10)
(-88.3220000004 0 1.53840286414e-11)
(-88.322 0 3.24504557872e-10)
(-88.3219999996 0 1.6825109545e-10)
(-88.3220000001 0 -1.24345702966e-10)
(-88.3219999998 0 -2.58797078404e-10)
(-88.322 0 1.1831848844e-10)
(-88.3220000001 0 1.64236773975e-10)
(-88.3219999997 0 -1.9504230478e-10)
(-88.322 0 3.61276119153e-10)
(-88.322 0 6.66291164941e-10)
(-88.3220000001 0 -2.90207164602e-10)
(-88.3219999997 0 -3.20546125158e-10)
(-88.3219999997 0 -7.52855005878e-10)
(-88.3220000005 0 3.66214934172e-10)
(-88.322 0 3.73638009925e-10)
(-88.3219999998 0 -3.08482624405e-10)
(-88.3220000001 0 -2.78790503183e-10)
(-88.322 0 -3.07300077957e-10)
(-88.322 0 -1.96979916092e-10)
(-88.322 0 -2.10060256258e-10)
(-88.322 0 -1.0287083003e-10)
(-88.322 0 9.94992064858e-11)
(-88.322 0 1.12117597407e-10)
(-88.3219999997 0 -1.42261697943e-10)
(-88.3220000003 0 3.1401040384e-10)
(-88.3220000002 0 -2.94473832683e-10)
(-88.3219999996 0 -6.22559602434e-10)
(-88.322 0 -5.01076183857e-10)
(-88.3219999998 0 -1.08481891444e-10)
(-88.3220000001 0 -8.30145648995e-11)
(-88.3220000005 0 -4.40950927662e-10)
(-88.3219999999 0 2.30100156815e-10)
(-88.322 0 3.26912084887e-10)
(-88.322 0 -3.6414369742e-10)
(-88.3220000003 0 4.40383563412e-11)
(-88.3220000001 0 -4.89111098854e-10)
(-88.3219999997 0 -4.312078722e-10)
(-88.322 0 1.10182496738e-10)
(-88.3219999999 0 -7.27800239049e-10)
(-88.322 0 -4.31167863099e-10)
(-88.3219999999 0 -4.40266345035e-10)
(-88.3220000006 0 2.1745061913e-10)
(-88.3220000006 0 2.91262793456e-10)
(-88.3219999987 0 -5.14045157884e-10)
(-88.3219999991 0 -9.42642337566e-11)
(-88.3220000014 0 -4.54422479272e-10)
(-88.3220000003 0 2.59629462823e-10)
(-88.3219999998 0 -4.36559189916e-10)
(-88.3220000003 0 -8.36052821074e-10)
(-88.3219999997 0 -2.04918933177e-10)
(-88.3219999999 0 7.50319400512e-11)
(-88.322 0 2.98036499755e-10)
(-88.322 0 3.2242408325e-11)