/*--------------------------------*- C++ -*----------------------------------*\
  =========                 |
  \\      /  F ield         | OpenFOAM: The Open Source CFD Toolbox
   \\    /   O peration     | Website:  https://openfoam.org
    \\  /    A nd           | Version:  6
     \\/     M anipulation  |
\*---------------------------------------------------------------------------*/
FoamFile
{
    version     2.0;
    format      ascii;
    class       volScalarField;
    location    "4.61e-05";
    object      p;
}
// * * * * * * * * * * * * * * * * * * * * * * * * * * * * * * * * * * * * * //

dimensions      [1 -1 -2 0 0 0 0];

internalField   nonuniform List<scalar> 
8192
(
6000000.00051
5999999.99943
6000000.00052
6000000.00059
6000000.00416
5999999.9976
6000000.00133
5999999.99988
6000000.00007
5999999.99979
6000000.00028
5999999.99978
6000000.00061
6000000.00143
6000000.00073
6000000.00046
6000000.0006
5999999.9986
5999999.99897
6000000.00067
5999999.99852
5999999.99724
6000000.00175
5999999.99976
5999999.99958
6000000.00011
5999999.9986
5999999.99924
5999999.99823
5999999.99935
6000000.00014
6000000.00035
5999999.99675
5999999.99366
6000000.00772
6000000.00764
5999999.99903
6000000.00463
5999999.99929
5999999.9975
6000000.00286
5999999.9981
6000000.00004
5999999.9999
6000000.00029
6000000.00023
6000000.00001
6000000.00009
5999999.99912
6000000.00132
5999999.99738
6000000.0003
6000000.00285
5999999.99632
5999999.99704
6000000.00143
6000000.00004
6000000.0029
5999999.99982
6000000.00517
5999999.99682
5999999.99768
5999999.99725
6000000.00194
6000000.00043
6000000.00185
5999999.9996
6000000.00359
5999999.99609
6000000.0029
5999999.99881
5999999.99726
6000000.00261
6000000.00285
6000000.00686
5999999.99674
5999999.99424
6000000.00651
6000000.00253
5999999.9955
5999999.99485
5999999.99263
6000000.00317
6000000.00586
6000000.00009
5999999.999
6000000.00645
6000000.00481
5999999.99797
5999999.99716
5999999.9988
5999999.99834
5999999.99721
6000000.00378
5999999.99714
6000000.00187
6000000.00157
5999999.99949
6000000.00374
5999999.99824
5999999.99968
5999999.99988
5999999.99971
6000000.00013
5999999.99913
6000000.00029
6000000.00012
6000000
5999999.99998
5999999.99998
6000000.00006
6000000.00015
5999999.99956
6000000.00059
5999999.99979
6000000.00108
6000000.00011
5999999.99894
6000000.00082
5999999.99933
5999999.99928
5999999.99897
6000000.00002
5999999.99936
6000000.00019
5999999.99957
6000000.00034
6000000.00028
6000000.00561
6000000.00059
5999999.99778
6000000.0006
5999999.99898
5999999.99945
5999999.99996
5999999.99984
6000000.00043
6000000.00087
5999999.99851
6000000.00371
6000000.0008
6000000.00324
6000000.0044
5999999.99683
5999999.99652
5999999.9981
6000000.00214
6000000.00233
5999999.99992
5999999.99989
5999999.99888
6000000.00062
5999999.99514
6000000.00096
5999999.99665
5999999.99651
6000000.00137
6000000.00055
5999999.99865
5999999.99909
5999999.9998
5999999.99958
6000000.00025
6000000.00049
5999999.99964
6000000.00228
6000000.00018
6000000.00103
5999999.99831
6000000.00053
5999999.99772
6000000.00299
6000000.00215
6000000.00279
6000000.00193
6000000.00412
6000000.00241
6000000.00076
5999999.99436
6000000.0026
6000000.00137
5999999.99826
6000000.00075
5999999.9979
6000000.00263
6000000.00127
6000000.00214
5999999.99398
5999999.99237
6000000.00184
6000000.00635
6000000.00422
5999999.99933
5999999.99968
6000000.00064
6000000.00011
5999999.99992
6000000.00001
5999999.99997
6000000.00001
6000000.00015
6000000.00002
6000000.00008
5999999.99785
5999999.99764
6000000.00266
5999999.99925
5999999.99997
6000000.00005
5999999.99998
6000000.0001
6000000.00024
6000000.00023
5999999.99945
5999999.99994
6000000.00003
5999999.99981
5999999.99998
5999999.99987
5999999.99641
6000000.00048
6000000.00148
5999999.99704
6000000.00092
6000000.007
5999999.99399
5999999.99672
6000000.00536
6000000.00867
5999999.99173
5999999.99577
6000000.00165
6000000.0038
5999999.99589
6000000.00292
6000000.00014
6000000.00441
5999999.99821
6000000.00719
6000000.00367
5999999.99232
6000000.0004
6000000.00587
5999999.99802
6000000.00516
5999999.9944
5999999.99879
6000000.00174
6000000.00277
6000000.00344
6000000.00057
6000000.00215
6000000.00084
5999999.99892
5999999.99941
5999999.9992
5999999.99981
5999999.99889
6000000.00045
5999999.99822
6000000.00246
5999999.99861
5999999.99974
5999999.99936
5999999.99977
5999999.99992
5999999.99994
6000000.00103
6000000.00153
5999999.99704
6000000.00048
6000000.00091
6000000.00005
6000000.00245
5999999.99492
5999999.99731
6000000.00533
6000000.00134
5999999.99621
5999999.99521
5999999.99921
5999999.99494
5999999.99826
5999999.99486
6000000.00143
6000000.00473
5999999.9964
6000000.00057
5999999.99911
6000000.00138
5999999.99969
5999999.99922
6000000.00165
5999999.99757
6000000.00152
6000000.00004
6000000.00001
6000000.00016
6000000.00001
6000000.00001
6000000.00002
6000000.00019
5999999.99889
6000000.00141
5999999.99725
5999999.99981
5999999.99877
6000000.00126
6000000.00507
5999999.99839
5999999.99429
6000000.00263
6000000.00585
5999999.99808
6000000.00351
5999999.99823
6000000.00617
5999999.99681
5999999.99706
5999999.99658
6000000.00226
6000000.00182
5999999.99599
6000000.00182
6000000.00079
6000000.0004
6000000.00074
5999999.99912
6000000.00012
6000000.00041
5999999.99847
6000000.00263
6000000.00233
6000000.00096
6000000.00016
5999999.99966
5999999.9974
5999999.99773
6000000.00056
6000000.00075
5999999.99983
5999999.99867
5999999.99809
6000000.00091
5999999.99673
6000000.00072
5999999.99693
5999999.9938
5999999.99651
6000000.00315
5999999.99762
5999999.99625
6000000.00734
5999999.99875
6000000.00294
6000000.00012
5999999.99718
6000000.00391
5999999.99613
6000000.00326
5999999.99972
5999999.99954
6000000.00059
5999999.99999
6000000.00036
6000000.0001
6000000.00042
6000000.00168
5999999.99836
6000000.00289
6000000.00095
5999999.99791
6000000.00172
5999999.99988
5999999.99983
6000000.00401
5999999.99852
6000000.00325
6000000.00313
5999999.99364
5999999.99308
5999999.99574
5999999.99883
6000000.00083
6000000.00175
6000000.00226
5999999.99501
5999999.9917
6000000.00157
5999999.99645
5999999.99863
6000000.0054
5999999.99845
5999999.99886
6000000.00179
5999999.99709
5999999.99796
6000000.00655
5999999.996
5999999.99894
5999999.99354
6000000.00145
6000000.00525
5999999.99995
5999999.99801
5999999.99124
6000000.00357
5999999.99953
6000000.00403
5999999.9984
5999999.99701
6000000.00266
5999999.99501
5999999.99396
6000000.00019
6000000.00291
5999999.99819
5999999.99787
5999999.99759
6000000.00185
6000000.00196
5999999.99817
6000000.00164
5999999.99869
5999999.9993
6000000.00065
5999999.99954
5999999.99988
6000000.00005
6000000.00011
6000000.00105
5999999.99676
6000000.00105
6000000.00018
5999999.99953
5999999.9973
6000000.00139
6000000.0006
5999999.99872
6000000.00103
6000000.00113
5999999.99809
5999999.99924
6000000.00029
5999999.99948
5999999.99737
5999999.99706
5999999.99879
5999999.9962
6000000.00204
6000000.00192
6000000.00052
6000000.00035
5999999.99937
6000000.00233
5999999.99811
6000000.0029
6000000.0021
5999999.99529
6000000.00443
6000000.00141
6000000.00049
6000000.00078
5999999.99853
6000000.00203
5999999.99962
5999999.99934
6000000.00071
6000000.00019
5999999.99965
5999999.99785
6000000.00329
5999999.99736
5999999.99961
6000000.00138
5999999.99732
6000000.00306
5999999.99692
6000000.00196
5999999.99911
5999999.99978
5999999.99783
6000000.00264
6000000.00637
5999999.9981
5999999.99807
6000000.00057
6000000.00254
5999999.99863
5999999.99792
6000000.00478
5999999.99839
5999999.99989
5999999.99984
6000000.00067
6000000.00294
5999999.99772
6000000.00388
5999999.99851
5999999.99868
6000000.00174
6000000
5999999.99985
6000000.0029
6000000.0009
6000000.00238
5999999.99915
5999999.99883
5999999.99946
5999999.99703
5999999.99532
6000000.00231
6000000.00076
5999999.99877
5999999.99964
5999999.99912
6000000.00004
5999999.99868
6000000.00049
5999999.99946
6000000.00025
5999999.99996
6000000
6000000.00003
5999999.99919
6000000.00039
6000000.00007
5999999.99988
5999999.99989
5999999.99981
6000000.0001
6000000.00014
5999999.99986
5999999.99989
5999999.99982
6000000.00002
5999999.99981
5999999.99992
5999999.99979
5999999.99972
6000000.00001
6000000
5999999.99981
5999999.99998
6000000.00001
5999999.99993
5999999.99864
6000000.0026
5999999.99822
5999999.99938
5999999.9994
5999999.9995
6000000.00004
5999999.99998
6000000.00001
6000000.00002
6000000.00074
6000000.00025
6000000.00002
6000000.00004
5999999.99961
5999999.99765
6000000.00261
6000000.00215
5999999.99899
5999999.99416
5999999.99259
6000000.00183
6000000.00504
6000000.00174
6000000.00411
5999999.99671
6000000.00453
5999999.99383
6000000.00075
5999999.99656
6000000.00046
6000000.00022
6000000.00231
5999999.99916
6000000.00154
5999999.99741
6000000.00126
5999999.99997
6000000.00004
6000000.00026
6000000.00019
5999999.99994
5999999.99944
6000000.00217
5999999.99979
6000000.00001
6000000.00002
5999999.99992
5999999.99993
6000000.00006
6000000.00032
5999999.99941
5999999.99915
5999999.99912
5999999.99891
5999999.99977
5999999.99879
5999999.9976
6000000.00133
6000000.00077
6000000.00072
6000000.00191
5999999.9978
5999999.99719
6000000.00771
6000000.00353
6000000.00103
6000000.0034
5999999.99743
5999999.99918
6000000.00045
5999999.99978
6000000.00042
6000000.00007
6000000.00055
6000000.00012
6000000.00197
5999999.99921
5999999.99876
6000000.00016
5999999.99967
6000000.00017
6000000.00483
5999999.99982
5999999.99763
6000000.00313
6000000.00176
6000000.00084
6000000.00091
5999999.99734
5999999.99827
6000000.00469
6000000.00454
6000000.00277
5999999.99772
5999999.99769
6000000.00252
5999999.99974
5999999.99838
5999999.99753
6000000.00318
6000000.00216
6000000.0001
6000000.00138
5999999.9986
6000000.00095
5999999.99955
6000000.00061
6000000.00063
6000000.00051
6000000.00076
5999999.99941
5999999.99905
6000000.00157
6000000.00134
5999999.99345
5999999.99513
6000000.00356
6000000.0013
5999999.9998
5999999.99847
6000000.00263
5999999.99752
6000000.00084
6000000.00148
6000000.00251
5999999.99369
6000000.00292
6000000.00177
6000000.00513
5999999.99522
5999999.99754
6000000.00141
6000000.00102
5999999.99453
5999999.99844
6000000.00348
6000000.00591
5999999.99888
6000000.00176
6000000.00134
6000000.00453
5999999.99715
6000000.00118
6000000.00168
5999999.996
6000000.00326
6000000.00303
6000000.00566
6000000.00886
5999999.99512
5999999.99779
6000000.00407
6000000.00638
5999999.99417
5999999.9941
6000000.00237
5999999.99765
6000000.00001
6000000.00051
5999999.99696
6000000.00239
5999999.99763
6000000.0012
5999999.99695
5999999.99526
6000000.00296
6000000.00346
5999999.99901
6000000.00346
6000000.00155
6000000.0005
5999999.99952
5999999.9996
5999999.99815
6000000.00389
6000000.00773
5999999.99641
5999999.99877
5999999.99208
6000000.00522
6000000.00663
5999999.99581
5999999.99694
5999999.99613
5999999.99767
5999999.99627
6000000.00041
5999999.99939
6000000.00074
5999999.99948
5999999.99948
6000000.00291
5999999.99509
5999999.99535
5999999.99648
6000000.00578
6000000.00011
5999999.99936
6000000.00099
5999999.99957
6000000.00215
5999999.99944
6000000.00158
6000000.00614
5999999.99615
5999999.99494
5999999.9937
6000000.00261
6000000.00246
5999999.99296
5999999.9975
5999999.99668
6000000.0014
5999999.99854
5999999.99411
6000000.00421
6000000.00371
6000000.00008
6000000.00089
6000000
6000000.0002
6000000.00022
6000000.00012
6000000.00001
5999999.99998
5999999.99992
5999999.99988
6000000.00015
6000000.00012
5999999.99909
6000000.00153
6000000.00522
6000000.00017
6000000.00048
6000000.00226
5999999.99924
6000000.00266
6000000.00064
5999999.99972
5999999.99995
5999999.9998
6000000.00156
5999999.99769
5999999.99743
6000000.00127
5999999.99735
6000000.00076
5999999.99922
5999999.99979
5999999.99969
6000000
5999999.99985
6000000.00004
6000000.00004
5999999.99748
6000000.00285
5999999.99892
5999999.99934
5999999.99988
5999999.99715
6000000.0009
6000000.00074
6000000.00004
6000000.00029
5999999.99889
6000000.0032
5999999.99987
6000000
6000000.0005
5999999.99951
6000000.0004
5999999.99818
6000000.0047
6000000.00311
5999999.99624
5999999.99817
6000000.00226
5999999.99805
6000000.00321
5999999.99944
6000000.00001
6000000.00002
5999999.99969
6000000.00012
5999999.99951
6000000.00106
5999999.99757
6000000.00181
6000000.00083
6000000.00071
5999999.99968
6000000.00036
5999999.99715
6000000.00653
6000000.00311
5999999.99482
6000000.0015
6000000.00322
6000000.0042
5999999.99669
5999999.99537
6000000.00287
5999999.99873
5999999.99963
6000000.00009
5999999.99994
5999999.99992
5999999.99998
6000000.00002
5999999.99989
5999999.99992
5999999.99988
6000000.00012
5999999.99882
6000000.0017
5999999.99754
5999999.99948
6000000.00137
5999999.99415
6000000.00468
6000000.00485
6000000.00169
5999999.99912
6000000.00338
6000000.00505
5999999.99756
5999999.99637
6000000.00362
5999999.99968
6000000.00334
6000000.00501
6000000.00054
6000000.00599
6000000.00004
5999999.99975
6000000.001
6000000.00065
5999999.99988
5999999.99999
6000000.0034
5999999.99867
6000000.00109
6000000.0019
6000000.0032
6000000.0022
5999999.99409
6000000.00129
6000000.00048
6000000.00015
5999999.9992
6000000.00515
6000000.0027
5999999.99823
6000000.00258
6000000.00005
5999999.99984
6000000.00068
5999999.99933
6000000.00179
5999999.99339
6000000.00294
6000000.00177
5999999.99963
5999999.99935
6000000.00008
6000000.0007
6000000.0001
6000000.00002
6000000.00002
6000000
6000000.00001
5999999.99989
6000000.00001
5999999.99981
6000000
6000000.00009
5999999.99939
6000000.00081
5999999.99999
5999999.99979
5999999.99983
6000000.00004
5999999.99887
6000000.00002
6000000.00032
6000000.00069
5999999.99805
5999999.99825
6000000.00098
6000000.00114
5999999.99935
6000000.00072
5999999.99863
6000000.00238
6000000.00193
6000000.00053
6000000.00035
5999999.99949
5999999.99879
6000000.00218
5999999.99522
6000000.00674
5999999.99668
5999999.9952
6000000.00434
6000000.00375
6000000.00532
6000000.00004
6000000.00014
5999999.99566
5999999.99494
5999999.99601
6000000.00142
5999999.99767
6000000.00466
5999999.99951
5999999.99793
6000000.00072
5999999.99778
6000000.00135
5999999.99802
6000000.0046
5999999.99414
5999999.9964
6000000.0049
5999999.99553
5999999.99692
5999999.99836
6000000.00135
6000000.00127
6000000.00095
6000000.00002
6000000.00097
6000000.0001
6000000.00206
5999999.99605
6000000.00142
6000000.00084
5999999.99989
5999999.99786
5999999.99975
5999999.99968
5999999.99778
5999999.99892
6000000.00099
5999999.99996
6000000.00118
6000000.00182
5999999.99818
5999999.99894
6000000.00376
5999999.99935
5999999.99987
5999999.99998
6000000.00001
6000000.00001
6000000.00014
6000000.00002
5999999.99997
6000000.00036
6000000.00041
5999999.99687
6000000.00042
5999999.99993
5999999.9998
6000000.00003
6000000.00029
5999999.99816
6000000.00286
6000000.00197
5999999.995
6000000.00677
5999999.99385
5999999.99257
6000000.00314
6000000.00557
5999999.99287
5999999.99771
5999999.99775
5999999.99967
6000000.00173
5999999.99836
6000000.00097
5999999.99678
5999999.99747
5999999.99997
5999999.99814
6000000.0024
5999999.99741
6000000.00181
6000000.00314
5999999.99536
5999999.99647
5999999.99519
5999999.99967
6000000.00463
6000000.00166
5999999.99625
5999999.993
6000000.00406
6000000.00323
5999999.99467
5999999.99874
6000000.00502
6000000.0041
5999999.99745
5999999.99829
6000000.0035
5999999.99982
6000000.00002
6000000.00001
5999999.99997
6000000.00045
6000000.00151
5999999.99865
5999999.99847
5999999.99916
6000000.00001
6000000.00094
5999999.99988
6000000.00037
5999999.99861
5999999.99795
6000000.00129
6000000.00028
6000000.00005
6000000.00002
6000000
5999999.99992
5999999.99996
6000000.00013
5999999.99961
5999999.99864
6000000.00021
6000000.00252
5999999.9979
5999999.99986
5999999.99994
5999999.99566
6000000.00113
6000000.00062
6000000.00338
6000000.00147
5999999.99998
6000000.00077
6000000.00038
5999999.99781
6000000.00325
5999999.99735
6000000.00243
6000000.00132
6000000.00431
5999999.99973
5999999.99961
6000000.00596
6000000.00243
6000000.00266
6000000.0018
5999999.99609
5999999.99903
6000000.00219
6000000.0001
5999999.9974
5999999.99779
6000000.0017
5999999.99698
5999999.99933
5999999.99741
6000000.00024
6000000.00213
5999999.99893
5999999.99891
5999999.99872
5999999.99985
5999999.9998
6000000.00074
6000000.00022
6000000.00028
5999999.99932
6000000.00126
6000000.0015
5999999.99766
6000000.00006
6000000.00011
6000000.00002
6000000.00011
6000000.00007
6000000.00051
6000000.00111
5999999.99846
6000000.00208
6000000.00141
5999999.99683
6000000.00434
5999999.99514
5999999.99902
6000000.00268
6000000.00657
6000000.00312
6000000.00181
6000000.00161
5999999.99345
5999999.9975
5999999.99838
5999999.99952
6000000.00263
6000000.00508
5999999.9937
5999999.99709
5999999.99463
6000000.00592
6000000.00281
6000000.00263
5999999.99899
6000000.0006
6000000.00079
6000000.00151
5999999.99951
5999999.99909
5999999.99971
6000000.00001
5999999.99999
6000000.00066
5999999.9992
6000000.00093
5999999.99941
6000000.00013
5999999.99883
5999999.99602
6000000.00242
6000000.00088
5999999.99582
5999999.99529
6000000.00607
5999999.99792
5999999.99568
6000000.00178
6000000.00644
5999999.99519
6000000.00366
5999999.99905
5999999.99869
6000000.00451
5999999.9996
6000000.00015
5999999.99999
6000000
6000000.00007
6000000.00001
6000000.00007
6000000.00002
6000000.00007
6000000.0002
6000000.00025
6000000.00003
6000000.00004
5999999.99974
6000000.00065
6000000.00158
5999999.99618
6000000.00343
6000000.00515
5999999.99853
6000000.00163
6000000.00157
6000000.00178
5999999.99949
6000000.00043
5999999.99337
6000000.00101
5999999.99921
6000000.00149
6000000.00193
5999999.99895
5999999.99875
5999999.99924
5999999.99932
6000000.00016
5999999.99888
6000000.00103
6000000.00215
5999999.99858
5999999.99948
5999999.99929
6000000.00061
6000000.00007
6000000
5999999.99996
5999999.99945
6000000.00051
5999999.99938
5999999.99773
6000000.00316
5999999.99689
6000000.00173
5999999.99924
5999999.9995
5999999.99974
5999999.9993
6000000.00196
5999999.99537
6000000.00204
5999999.99938
5999999.99956
6000000.00002
5999999.99944
5999999.99988
5999999.99987
6000000.00067
5999999.99895
5999999.99925
5999999.99998
5999999.99993
5999999.99992
5999999.99998
6000000.00009
5999999.99993
5999999.99982
6000000
5999999.9999
5999999.9999
6000000.00001
5999999.99979
6000000.00087
5999999.99989
6000000.00013
6000000.00013
6000000.00107
5999999.99854
6000000.00185
5999999.99696
6000000.00198
6000000.00127
6000000.00198
6000000.00248
5999999.99689
5999999.99953
5999999.99838
6000000.00185
5999999.99912
5999999.99774
6000000.00098
5999999.99872
5999999.99937
5999999.9998
6000000.00033
6000000.00369
6000000.00132
6000000.00332
5999999.99888
6000000.00029
6000000.00206
5999999.99537
6000000.00124
5999999.99677
6000000.00437
6000000.00243
5999999.99483
5999999.9953
5999999.99528
6000000.00533
6000000.00196
6000000.00591
5999999.99695
5999999.99736
6000000.00091
5999999.99453
5999999.99506
5999999.99735
5999999.99809
6000000.00157
5999999.99584
5999999.99742
5999999.99277
5999999.99982
5999999.9951
5999999.99777
5999999.99702
5999999.99695
5999999.99645
5999999.99533
6000000.00367
6000000.00082
6000000.00091
5999999.99561
6000000.00153
6000000.00009
5999999.99975
6000000.0005
5999999.99932
5999999.99997
5999999.99669
6000000.00372
5999999.9943
5999999.99444
6000000.0017
5999999.99475
5999999.99503
6000000.00615
5999999.99525
5999999.99399
6000000.00074
6000000.00164
5999999.9998
6000000.0007
6000000.00014
6000000.00007
5999999.99993
6000000.00049
5999999.99952
6000000.00043
5999999.99981
6000000.00016
6000000.00008
5999999.99992
5999999.99993
6000000.00003
6000000.00075
5999999.99925
5999999.9995
6000000.00127
5999999.99991
5999999.99993
5999999.99981
5999999.99957
5999999.99906
6000000.00027
5999999.99999
5999999.99986
5999999.99995
5999999.99955
6000000.00033
6000000.00154
5999999.99911
6000000.00096
6000000.00216
6000000.00239
5999999.99688
5999999.99791
6000000.00246
5999999.99965
6000000.00073
6000000.00054
5999999.99746
6000000.00235
6000000.0018
6000000.00028
5999999.99876
6000000.00008
5999999.99796
6000000.00262
6000000.00045
6000000.00119
5999999.99903
5999999.99829
6000000.00501
6000000.00519
5999999.99272
5999999.9971
6000000.00191
6000000.00152
5999999.99882
6000000.00126
6000000.00003
6000000.00293
5999999.99904
6000000.00158
5999999.99972
5999999.99982
6000000
6000000.00004
5999999.99997
5999999.99998
5999999.99998
6000000.00001
6000000.00004
6000000.00014
6000000
6000000
6000000.00001
5999999.99998
6000000.00016
5999999.99999
6000000.00001
5999999.99993
5999999.99996
6000000.00014
6000000.00008
5999999.99995
6000000.00014
6000000
6000000
5999999.9999
6000000.00013
5999999.99995
6000000.00006
5999999.99989
5999999.99953
5999999.99948
5999999.99996
6000000.00003
6000000.00202
5999999.99932
5999999.99975
5999999.9999
6000000.0001
6000000.00003
6000000.00009
5999999.99992
6000000.00001
6000000
5999999.99996
5999999.99938
6000000.00053
5999999.99888
6000000.00261
5999999.99984
5999999.99891
6000000.0015
5999999.99874
6000000.00296
6000000.00386
5999999.9991
5999999.9997
6000000.00632
6000000.00088
6000000.00066
6000000.00057
5999999.99977
6000000.00004
6000000.00007
6000000.00026
6000000.00005
6000000.00006
6000000.0001
5999999.99954
6000000.00068
6000000.00026
6000000.00023
6000000.00018
5999999.99989
6000000.00002
5999999.99992
6000000.00002
5999999.99998
6000000.00068
5999999.99837
5999999.99772
6000000.00301
5999999.99788
6000000.00286
5999999.99729
5999999.99918
6000000.00002
5999999.99742
5999999.99929
6000000.00299
5999999.99587
5999999.99433
6000000.00083
5999999.9942
5999999.99329
6000000.00148
5999999.9972
5999999.99928
5999999.99614
6000000.00197
6000000.00181
5999999.99745
6000000.00379
5999999.99811
5999999.99815
6000000.00194
6000000.00174
6000000.00018
5999999.99955
5999999.99983
6000000.00004
5999999.99992
5999999.99974
6000000.0011
5999999.99954
6000000.00149
5999999.99864
5999999.99853
6000000.00026
5999999.99893
5999999.99941
5999999.99817
5999999.99896
5999999.99901
5999999.99995
5999999.99898
6000000.00351
5999999.99944
5999999.99879
5999999.99972
5999999.99998
5999999.99996
5999999.99983
5999999.99984
6000000.00022
5999999.99998
5999999.99996
6000000.00014
6000000.00007
5999999.99998
6000000.00007
5999999.99998
6000000.00017
6000000.00005
6000000.00061
5999999.9979
5999999.99896
6000000.00065
6000000.00003
5999999.99998
5999999.99997
6000000.00001
5999999.99989
5999999.99981
6000000.00003
5999999.99994
5999999.99922
6000000.00053
5999999.99942
6000000.00081
5999999.99959
6000000
6000000.00145
5999999.99957
6000000.00004
5999999.99994
6000000.00004
5999999.99991
5999999.99999
5999999.99983
5999999.99991
5999999.99998
5999999.99988
5999999.99903
6000000.00024
5999999.99908
6000000.00263
5999999.99889
6000000.00059
6000000.00021
5999999.99986
5999999.99999
6000000.00079
5999999.99939
5999999.99561
6000000.0027
6000000.00018
6000000.00012
6000000.00033
6000000.00101
6000000.00067
5999999.99815
6000000.00309
6000000.00328
6000000.00026
5999999.99836
6000000.00254
6000000.00174
5999999.99835
6000000.00435
6000000.00034
6000000.00255
5999999.99689
5999999.99773
6000000.00085
5999999.99908
5999999.99995
5999999.9972
6000000.00333
6000000.00063
5999999.99935
6000000.0002
5999999.99844
6000000.00244
5999999.99863
6000000.00164
5999999.99582
6000000.005
6000000.00411
5999999.99805
6000000.00138
5999999.99365
5999999.99313
6000000.00348
6000000.0027
6000000.00495
5999999.99882
5999999.99623
6000000.00432
5999999.99659
5999999.99858
5999999.99891
5999999.99866
6000000.00055
5999999.99939
6000000.00014
5999999.99968
5999999.99969
6000000.00018
5999999.99814
6000000.00152
5999999.99971
5999999.99938
6000000.00142
5999999.99884
6000000.00091
5999999.99667
6000000.00007
5999999.99998
5999999.99964
5999999.99848
5999999.99845
6000000.00147
6000000.00103
5999999.99949
6000000.00584
6000000.00233
5999999.99569
6000000.00261
5999999.99871
6000000.00579
6000000.0041
5999999.99721
5999999.99566
5999999.9988
6000000.00649
6000000.00202
5999999.99754
5999999.99687
5999999.99534
6000000.00296
5999999.99685
5999999.99519
5999999.9985
5999999.99467
6000000.00413
5999999.99737
5999999.99718
5999999.99881
6000000.00158
5999999.99751
5999999.99811
6000000.00153
6000000.00109
5999999.99703
5999999.99751
5999999.9961
5999999.99627
5999999.99708
5999999.9981
6000000.00045
5999999.99414
5999999.99471
6000000.00098
6000000.0001
5999999.99574
5999999.99588
5999999.99517
5999999.99421
6000000.00445
5999999.99751
5999999.99297
5999999.99971
5999999.99559
6000000.00192
6000000.00516
5999999.99252
5999999.9944
5999999.99762
6000000.00559
6000000.00128
5999999.99817
6000000.00356
6000000.00462
5999999.9998
6000000.00609
5999999.99619
5999999.99357
6000000.00372
6000000.00127
5999999.99938
5999999.99467
5999999.99637
6000000.00278
5999999.99597
5999999.9984
6000000.0021
5999999.99895
6000000.00291
6000000.00716
6000000.00331
5999999.99911
5999999.99527
5999999.99719
6000000.00584
6000000.00225
5999999.99561
5999999.99712
6000000.0009
6000000.00629
6000000.00099
5999999.99894
5999999.99985
6000000.0021
5999999.99844
5999999.99909
6000000.00404
6000000.00187
5999999.99696
6000000.00268
5999999.99658
5999999.99963
5999999.99739
6000000.0007
6000000.00166
5999999.99402
6000000
6000000.0011
5999999.99416
5999999.99744
6000000.00328
5999999.99816
5999999.99815
6000000.00293
5999999.99845
5999999.99655
5999999.99561
5999999.99832
5999999.99649
5999999.99929
5999999.99787
6000000.00689
5999999.99756
6000000.00047
6000000.00535
5999999.99862
6000000.00202
6000000.00004
6000000.00873
5999999.99705
6000000.00065
6000000.0064
6000000.00704
5999999.99887
5999999.99774
6000000.01009
6000000.00793
6000000.00619
5999999.99807
5999999.99785
6000000.00804
6000000.00856
6000000.00178
6000000.00673
6000000.00238
5999999.99482
6000000.00679
6000000.00807
6000000.00013
5999999.99713
6000000.00762
6000000.00264
5999999.99388
6000000.00237
6000000.00218
6000000.00916
6000000.00781
5999999.99759
6000000.00215
6000000.00726
5999999.99619
5999999.99923
6000000.00653
6000000.00936
6000000.00045
6000000.00627
6000000.00564
6000000.00485
5999999.99785
6000000.0011
6000000.00841
6000000.00952
6000000.01021
6000000.00301
6000000.0029
6000000.00641
6000000.01042
5999999.99969
6000000.0028
6000000.0058
5999999.99656
6000000.00574
6000000.00528
6000000.00982
6000000.00421
6000000.00741
6000000.0058
5999999.99348
6000000.00688
6000000.00219
5999999.99836
6000000.0088
5999999.99887
5999999.99986
5999999.99865
6000000.00049
5999999.99827
5999999.99988
5999999.99885
5999999.99956
5999999.99934
5999999.99944
5999999.99741
5999999.99785
5999999.9996
5999999.9982
6000000.00022
5999999.99823
5999999.99893
5999999.99827
6000000.00018
5999999.99798
5999999.99732
5999999.99863
5999999.99972
5999999.9987
5999999.99879
5999999.99959
5999999.99748
5999999.99844
5999999.99934
5999999.99586
5999999.99841
6000000.00025
5999999.99934
5999999.99665
5999999.99942
5999999.99753
5999999.99987
5999999.99888
5999999.99873
5999999.99698
5999999.99915
6000000.00004
5999999.99786
5999999.99944
5999999.99968
5999999.99883
5999999.9989
5999999.9992
5999999.99667
5999999.99696
5999999.99947
5999999.99992
6000000.00028
6000000.00052
5999999.99836
5999999.99906
5999999.99793
5999999.99823
5999999.99832
5999999.9987
5999999.99961
6000000.00047
6000000.00214
5999999.99831
5999999.99938
5999999.9994
5999999.99983
5999999.99972
6000000.0007
5999999.99971
5999999.99956
6000000.0003
5999999.99978
5999999.99973
5999999.99971
5999999.99973
6000000.00049
6000000.00001
5999999.99979
5999999.99961
6000000.00027
6000000.00037
5999999.99985
6000000.00027
5999999.99982
6000000.00038
5999999.99991
5999999.99974
6000000.00019
5999999.99992
6000000.00043
5999999.99985
6000000
5999999.99949
6000000.00034
6000000.00036
6000000.00026
6000000.00053
5999999.99988
6000000.00049
6000000.00047
5999999.99974
6000000.00011
5999999.99985
6000000.00031
6000000.00009
5999999.99968
6000000.00045
6000000.00023
6000000.00045
6000000.00031
5999999.99955
5999999.99974
5999999.99973
6000000.00015
6000000.00006
6000000.00036
6000000.00038
5999999.9997
5999999.99998
6000000.00025
6000000
6000000.00032
6000000.00016
6000000.00018
6000000.00046
5999999.9997
6000000.00057
6000000.00065
6000000.0009
6000000.00095
6000000.00105
6000000.00063
6000000.00096
6000000.0008
6000000.00124
6000000.00072
6000000.00078
6000000.0008
6000000.00082
6000000.00076
6000000.0008
6000000.00087
6000000.00094
6000000.00073
6000000.00088
6000000.00105
6000000.00087
6000000.00103
6000000.00113
6000000.00067
6000000.001
6000000.00089
6000000.00083
6000000.00069
6000000.00054
6000000.00093
6000000.00086
6000000.00082
6000000.0009
6000000.00085
6000000.00116
6000000.00068
6000000.00093
6000000.00067
6000000.00083
6000000.00056
6000000.00078
6000000.00096
6000000.00095
6000000.00095
6000000.00088
6000000.00085
6000000.00091
6000000.00076
6000000.00095
6000000.0011
6000000.00109
6000000.00075
6000000.00084
6000000.00076
6000000.00092
6000000.00096
6000000.0009
6000000.00094
6000000.00097
6000000.00098
6000000.0009
6000000.00085
6000000.00113
6000000.0013
6000000.00084
5999999.99905
5999999.99876
5999999.9989
5999999.99903
5999999.99881
5999999.99927
5999999.99885
5999999.99883
5999999.99871
5999999.99876
5999999.99892
5999999.99911
5999999.99906
5999999.99891
5999999.99866
5999999.99882
5999999.99875
5999999.99906
5999999.9989
5999999.99911
5999999.99888
5999999.99878
5999999.99914
5999999.99904
5999999.99881
5999999.9989
5999999.99938
5999999.99884
5999999.99897
5999999.99905
5999999.99901
5999999.99944
5999999.99909
5999999.99911
5999999.99887
5999999.99889
5999999.99914
5999999.99875
5999999.99862
5999999.99873
5999999.99904
5999999.99908
5999999.99885
5999999.99904
5999999.99897
5999999.99897
5999999.99938
5999999.9991
5999999.9988
5999999.99899
5999999.99889
5999999.99872
5999999.99885
5999999.99868
5999999.99896
5999999.9989
5999999.99902
5999999.99904
5999999.99892
5999999.99895
5999999.99889
5999999.99903
5999999.9989
5999999.99885
5999999.99953
5999999.99936
5999999.99947
5999999.99975
5999999.99966