/*--------------------------------*- C++ -*----------------------------------*\
  =========                 |
  \\      /  F ield         | OpenFOAM: The Open Source CFD Toolbox
   \\    /   O peration     | Website:  https://openfoam.org
    \\  /    A nd           | Version:  6
     \\/     M anipulation  |
\*---------------------------------------------------------------------------*/
FoamFile
{
    version     2.0;
    format      ascii;
    class       volVectorField;
    location    "4.61e-05";
    object      U;
}
// * * * * * * * * * * * * * * * * * * * * * * * * * * * * * * * * * * * * * //

dimensions      [0 1 -1 0 0 0 0];

internalField   nonuniform List<vector> 
8192
(
(-88.3220000001 0 -2.75624875989e-10)
(-88.3219999996 0 -6.43582520051e-11)
(-88.3220000001 0 -6.70923832373e-11)
(-88.3220000003 0 -2.29109946381e-10)
(-88.3219999995 0 -6.07775816435e-11)
(-88.3219999997 0 1.88525317401e-11)
(-88.3220000002 0 -2.30666488937e-12)
(-88.322 0 7.62581458277e-11)
(-88.322 0 -2.34787563541e-10)
(-88.322 0 -5.50396000562e-10)
(-88.3219999999 0 -6.58950430969e-10)
(-88.322 0 3.41335163534e-10)
(-88.3220000002 0 6.33711758384e-10)
(-88.322 0 -6.89903787468e-10)
(-88.3219999999 0 -6.02908449538e-10)
(-88.3219999999 0 3.28438959852e-10)
(-88.3219999999 0 2.38935264115e-10)
(-88.3219999999 0 5.75205486845e-10)
(-88.3220000002 0 -4.10273014142e-10)
(-88.322 0 -5.14468710249e-10)
(-88.3219999997 0 2.57284809523e-10)
(-88.3220000003 0 3.61778843806e-10)
(-88.3220000003 0 -5.33372967423e-10)
(-88.3219999998 0 -5.30360030447e-10)
(-88.322 0 1.49546942493e-10)
(-88.3219999999 0 1.53024304259e-10)
(-88.3219999999 0 1.92915023917e-10)
(-88.3219999999 0 1.61191294524e-10)
(-88.3220000002 0 2.68174701441e-10)
(-88.3220000001 0 -1.34196009133e-10)
(-88.3219999999 0 1.928097318e-10)
(-88.3219999997 0 -2.92855984508e-11)
(-88.3219999991 0 1.08645137708e-10)
(-88.3220000016 0 4.96314337818e-10)
(-88.3220000023 0 -7.47296364274e-10)
(-88.3219999988 0 -5.88727133206e-10)
(-88.3219999997 0 -2.11848863523e-11)
(-88.3219999996 0 -5.27077521832e-10)
(-88.3219999987 0 1.7222544104e-10)
(-88.3220000005 0 1.50299184129e-10)
(-88.3220000001 0 -3.43850921629e-11)
(-88.3219999998 0 4.49171606463e-11)
(-88.3220000001 0 -1.21393578835e-11)
(-88.322 0 -1.43668981927e-11)
(-88.322 0 -5.28482714929e-11)
(-88.322 0 -3.14791428008e-11)
(-88.322 0 -1.709623265e-11)
(-88.322 0 -1.63065663268e-11)
(-88.322 0 1.83635923805e-11)
(-88.3219999999 0 -7.51345629759e-11)
(-88.3219999999 0 9.61161664889e-11)
(-88.3220000005 0 -4.15230112291e-11)
(-88.3219999995 0 -1.86325476402e-10)
(-88.3219999994 0 2.99342315265e-10)
(-88.3220000011 0 1.66524941011e-10)
(-88.3220000006 0 -2.15005324453e-10)
(-88.3219999999 0 -3.86230538365e-11)
(-88.3219999998 0 -1.56935928945e-10)
(-88.3220000001 0 -3.66652356236e-11)
(-88.3219999992 0 -2.70780831103e-10)
(-88.3219999985 0 3.12883923991e-10)
(-88.3219999998 0 3.7254652523e-10)
(-88.3220000008 0 3.48221861557e-10)
(-88.3220000013 0 7.05203959399e-12)
(-88.322 0 -2.7690428138e-10)
(-88.3219999999 0 -7.82222187234e-11)
(-88.3220000001 0 9.83018451555e-11)
(-88.3219999997 0 7.24658872376e-12)
(-88.322 0 1.99766475741e-10)
(-88.3220000001 0 -1.09232061579e-10)
(-88.3219999996 0 3.71525252155e-11)
(-88.3220000005 0 5.46648632721e-12)
(-88.3220000012 0 -3.27576670913e-12)
(-88.3220000008 0 -5.19256195758e-11)
(-88.3219999983 0 5.74216454238e-11)
(-88.3219999974 0 -2.07396151088e-10)
(-88.3220000019 0 -2.13784131398e-11)
(-88.3220000023 0 -1.64652202456e-10)
(-88.3219999981 0 -2.77639919205e-10)
(-88.3219999984 0 2.65540797192e-10)
(-88.3219999997 0 1.89936453916e-10)
(-88.3220000015 0 1.43547124478e-10)
(-88.322000002 0 -3.04714785442e-10)
(-88.3219999988 0 -1.77516540023e-10)
(-88.3219999985 0 -4.1690190381e-11)
(-88.3220000013 0 1.09821492423e-11)
(-88.3220000015 0 1.8349003091e-10)
(-88.3219999988 0 -6.52995652183e-11)
(-88.3219999987 0 4.06623719262e-10)
(-88.322 0 -2.08363767714e-10)
(-88.3220000001 0 3.07417642697e-10)
(-88.3219999999 0 2.74732986645e-10)
(-88.3220000004 0 -4.10486270488e-11)
(-88.322 0 3.2533681658e-11)
(-88.3219999999 0 5.69459794868e-11)
(-88.3220000004 0 1.07296964957e-11)
(-88.3219999999 0 -1.98738706629e-10)
(-88.3220000003 0 -4.27555409329e-10)
(-88.322 0 5.00769405171e-10)
(-88.3219999996 0 5.87108720567e-10)
(-88.3220000001 0 -1.17287385921e-12)
(-88.322 0 2.93412333997e-10)
(-88.322 0 -1.73548545002e-10)
(-88.322 0 -1.83467111258e-10)
(-88.322 0 1.09174077699e-10)
(-88.322 0 -6.55021093184e-11)
(-88.322 0 4.82065849626e-11)
(-88.322 0 -1.67638548192e-10)
(-88.322 0 -3.83486272913e-10)
(-88.322 0 -3.1645754579e-10)
(-88.322 0 -3.08993163179e-10)
(-88.322 0 -3.55871705321e-10)
(-88.322 0 -3.48463124526e-10)
(-88.322 0 -9.99187804228e-11)
(-88.322 0 2.91374339786e-10)
(-88.3220000001 0 -7.57763794241e-11)
(-88.3219999999 0 5.08322341626e-11)
(-88.322 0 -9.06150436978e-11)
(-88.3220000001 0 -2.59644913034e-10)
(-88.322 0 4.05211199644e-10)
(-88.322 0 -1.53656763525e-10)
(-88.3220000001 0 -1.80570984944e-10)
(-88.322 0 -3.85391534364e-10)
(-88.3219999999 0 7.91667649474e-10)
(-88.322 0 2.98463349964e-10)
(-88.3220000001 0 -7.79259296377e-10)
(-88.3220000001 0 -1.0227746179e-09)
(-88.322 0 -4.24144642646e-10)
(-88.3219999994 0 5.97965748074e-11)
(-88.321999999 0 7.85789712619e-11)
(-88.322 0 -2.38491103625e-11)
(-88.322 0 1.67560078044e-10)
(-88.3219999999 0 -1.25427564189e-10)
(-88.322 0 1.2016522647e-10)
(-88.322 0 -3.25323205737e-11)
(-88.322 0 -7.56170723537e-11)
(-88.3220000001 0 2.07183811324e-10)
(-88.3219999999 0 5.1517909542e-10)
(-88.3220000002 0 6.16940380724e-10)
(-88.3220000001 0 -2.58478438951e-10)
(-88.322 0 -5.57641096563e-10)
(-88.3220000005 0 5.19653521216e-10)
(-88.321999999 0 5.4265906764e-10)
(-88.3219999989 0 -3.43937296323e-10)
(-88.3220000001 0 -2.46002170343e-10)
(-88.3220000008 0 -5.24259925699e-10)
(-88.3220000008 0 4.36914807387e-10)
(-88.3219999995 0 4.79758060017e-10)
(-88.3219999993 0 -2.26055411039e-10)
(-88.3219999998 0 -2.206963956e-10)
(-88.3220000004 0 5.13180891725e-10)
(-88.3219999994 0 5.24918653089e-10)
(-88.3220000003 0 -7.89868738427e-11)
(-88.322 0 -1.41016421933e-10)
(-88.3219999989 0 -8.23509218929e-11)
(-88.3220000007 0 7.42360925335e-11)
(-88.3220000007 0 -4.4862234007e-11)
(-88.3219999999 0 3.01531507816e-11)
(-88.322 0 8.77239484548e-11)
(-88.3220000003 0 -1.37599816744e-11)
(-88.322 0 -4.37551278578e-10)
(-88.322 0 4.11633170739e-10)
(-88.3220000001 0 5.79696772021e-10)
(-88.322 0 -3.53441278218e-10)
(-88.3220000003 0 -6.39127198359e-10)
(-88.322 0 7.7721404236e-10)
(-88.3219999997 0 3.81721105934e-10)
(-88.322 0 -3.59437340807e-10)
(-88.322 0 -4.14192260616e-10)
(-88.322 0 1.61920803937e-10)
(-88.3220000004 0 -2.61786882032e-10)
(-88.322000001 0 -5.90553752423e-11)
(-88.3220000003 0 -3.13307262387e-10)
(-88.3219999998 0 5.65869121173e-11)
(-88.322 0 -5.49495894276e-10)
(-88.3219999999 0 -5.81192990646e-10)
(-88.3219999995 0 4.51234052201e-10)
(-88.3219999987 0 1.84381706667e-11)
(-88.3219999999 0 -3.51184478316e-10)
(-88.3220000009 0 1.63189095114e-10)
(-88.3219999995 0 -4.19323797346e-10)
(-88.322 0 3.8329881196e-10)
(-88.322 0 5.22163595786e-11)
(-88.3220000004 0 -3.2837685e-10)
(-88.3220000011 0 -3.42219911726e-10)
(-88.3220000004 0 -3.6090079245e-10)
(-88.3219999983 0 -1.60829029148e-10)
(-88.3219999979 0 -1.6727445361e-10)
(-88.3220000018 0 -1.46382988214e-10)
(-88.3220000025 0 7.90766523286e-11)
(-88.322 0 4.89078464885e-11)
(-88.3219999999 0 6.72578640913e-11)
(-88.322 0 5.88268140515e-10)
(-88.322 0 1.73522331076e-10)
(-88.322 0 -2.52396573861e-11)
(-88.322 0 1.45678860928e-10)
(-88.322 0 -1.6892998881e-10)
(-88.322 0 3.21800351955e-11)
(-88.322 0 1.1211604324e-11)
(-88.322 0 3.41760172116e-11)
(-88.322 0 1.93514397122e-11)
(-88.322 0 8.6306187181e-11)
(-88.3219999999 0 -2.5250856479e-11)
(-88.3219999998 0 1.52922590387e-10)
(-88.3220000004 0 -7.15267269175e-12)
(-88.3220000001 0 3.36196308378e-10)
(-88.3219999998 0 3.16431829815e-10)
(-88.322 0 -2.53669659178e-10)
(-88.322 0 -1.8217464971e-10)
(-88.322 0 -2.58234898131e-10)
(-88.322 0 4.42023079879e-10)
(-88.322 0 4.12846509118e-10)
(-88.322 0 -4.70373774869e-10)
(-88.3219999999 0 -5.10668530085e-10)
(-88.322 0 3.06267549802e-10)
(-88.322 0 4.68189093891e-10)
(-88.322 0 -1.85393294731e-10)
(-88.322 0 5.44388644785e-10)
(-88.3219999996 0 -1.94129913548e-10)
(-88.3219999998 0 2.66470508022e-11)
(-88.3220000005 0 -1.05013802552e-10)
(-88.3219999997 0 -2.36121834979e-10)
(-88.3219999999 0 7.40320081926e-11)
(-88.3220000014 0 -7.95570744911e-11)
(-88.321999999 0 5.31286927442e-12)
(-88.3219999983 0 -7.26896214365e-11)
(-88.3220000015 0 4.04582879994e-11)
(-88.322000002 0 8.68420385435e-11)
(-88.321999998 0 -6.51611489274e-11)
(-88.321999998 0 3.36673028181e-10)
(-88.3220000022 0 -1.57475711691e-11)
(-88.3220000015 0 3.21881922912e-11)
(-88.3219999989 0 -5.72287774007e-11)
(-88.3219999998 0 -6.40245438029e-12)
(-88.3220000004 0 -6.61978866149e-11)
(-88.3220000001 0 1.69550434778e-10)
(-88.3219999998 0 4.13119618352e-10)
(-88.3220000005 0 3.14174193218e-10)
(-88.3220000013 0 3.26559403455e-10)
(-88.321999998 0 2.48466456496e-10)
(-88.321999999 0 4.78223170135e-10)
(-88.3220000015 0 1.98478234072e-10)
(-88.3219999998 0 -3.41016354617e-10)
(-88.3220000003 0 1.07307545751e-10)
(-88.3219999993 0 -1.70601608516e-10)
(-88.3219999991 0 2.46495625228e-10)
(-88.3220000014 0 5.27538922689e-10)
(-88.3220000007 0 -5.11296053878e-10)
(-88.322 0 -1.36528219122e-10)
(-88.3219999998 0 4.14081371728e-10)
(-88.3219999997 0 7.12894434133e-11)
(-88.3219999998 0 -4.29580273992e-10)
(-88.3219999995 0 -9.60625281606e-10)
(-88.3219999998 0 8.09561101263e-10)
(-88.3220000001 0 8.93108889168e-10)
(-88.322 0 6.83402697746e-10)
(-88.3220000004 0 -2.96215812865e-10)
(-88.3220000001 0 -1.01599588222e-10)
(-88.322 0 1.90268876498e-10)
(-88.3220000003 0 -3.15889770723e-11)
(-88.322 0 -4.80346158101e-11)
(-88.3219999996 0 -1.13147279282e-11)
(-88.322 0 5.99623751143e-12)
(-88.322 0 2.57188860475e-11)
(-88.322 0 1.98361049946e-11)
(-88.322 0 -3.61773127723e-12)
(-88.322 0 5.57213361579e-11)
(-88.3220000001 0 -2.26659474032e-10)
(-88.3219999997 0 -2.40376477532e-10)
(-88.3219999999 0 2.43832993493e-11)
(-88.3220000002 0 -2.26203411561e-11)
(-88.322 0 3.00110512403e-11)
(-88.3220000001 0 1.28682266133e-10)
(-88.3219999996 0 1.30876583191e-10)
(-88.3219999995 0 -1.87193775282e-11)
(-88.3220000013 0 3.33986168304e-12)
(-88.3220000011 0 2.38280141693e-11)
(-88.3219999982 0 1.81845178323e-11)
(-88.3219999985 0 6.43635173731e-11)
(-88.3220000004 0 -1.23435931903e-10)
(-88.3220000001 0 1.09943139099e-10)
(-88.3220000001 0 3.45709003376e-12)
(-88.3219999999 0 2.3091822035e-10)
(-88.3220000005 0 2.71227736061e-10)
(-88.3220000011 0 3.34624051487e-10)
(-88.3219999995 0 -2.09013298446e-11)
(-88.3219999996 0 1.54211729911e-10)
(-88.3220000004 0 3.64941422886e-10)
(-88.322 0 -2.81250858516e-11)
(-88.322 0 -5.03997235184e-10)
(-88.3219999999 0 -7.17561963766e-10)
(-88.3220000001 0 1.504801195e-10)
(-88.3219999998 0 7.98447079003e-10)
(-88.3219999999 0 -1.00634621323e-09)
(-88.3220000003 0 -2.77644014126e-10)
(-88.322 0 1.81950381239e-10)
(-88.322 0 3.63553334847e-10)
(-88.322 0 -1.38307481439e-10)
(-88.322 0 2.30371333056e-10)
(-88.322 0 6.32906562434e-11)
(-88.322 0 2.88099333081e-10)
(-88.322 0 -4.42358670171e-11)
(-88.3220000001 0 5.47443602047e-10)
(-88.3219999998 0 5.04224392183e-10)
(-88.3219999997 0 -3.93769573975e-10)
(-88.3220000003 0 -1.10029475685e-10)
(-88.322 0 2.67157533448e-10)
(-88.3220000006 0 -1.52932579229e-11)
(-88.3219999993 0 3.37440515751e-10)
(-88.3219999986 0 -3.79585925231e-10)
(-88.3220000015 0 -5.92819118733e-11)
(-88.3220000016 0 -2.25057079548e-10)
(-88.3219999992 0 1.28366038147e-10)
(-88.3219999999 0 1.18085062549e-10)
(-88.3219999998 0 -3.02725384244e-10)
(-88.322 0 7.28298794263e-10)
(-88.3219999993 0 5.94611301987e-10)
(-88.3219999987 0 3.70878395602e-10)
(-88.3220000002 0 1.56922420667e-10)
(-88.3220000004 0 1.92648308998e-13)
(-88.3220000002 0 -9.3376104538e-11)
(-88.3219999991 0 -1.92113098052e-10)
(-88.322 0 3.65949871659e-10)
(-88.3220000004 0 5.81033405995e-10)
(-88.322 0 -2.53916943944e-11)
(-88.3219999999 0 4.2002042959e-10)
(-88.322 0 3.30971687698e-10)
(-88.322 0 -3.98781257291e-10)
(-88.322 0 1.04071392096e-11)
(-88.3219999999 0 8.7488980441e-11)
(-88.3220000003 0 -3.4906969948e-11)
(-88.3220000003 0 1.56403030566e-10)
(-88.3219999999 0 1.64640228592e-10)
(-88.3219999998 0 -4.63019931956e-10)
(-88.3219999999 0 4.81272510398e-10)
(-88.3219999997 0 3.8933952592e-10)
(-88.3219999998 0 4.88885110232e-10)
(-88.3220000003 0 1.1381323966e-10)
(-88.3220000003 0 -6.19622248302e-10)
(-88.322 0 -2.36908659728e-10)
(-88.3219999999 0 8.4816346408e-10)
(-88.3219999999 0 1.03351731202e-09)
(-88.3220000003 0 -5.90121140119e-10)
(-88.3219999999 0 -5.89177141057e-10)
(-88.3219999998 0 -4.15888581389e-10)
(-88.3219999998 0 -4.54282744341e-11)
(-88.3219999992 0 1.11961402341e-10)
(-88.3219999996 0 -4.02373961274e-10)
(-88.3220000012 0 4.82374192921e-10)
(-88.3220000001 0 6.34585905551e-10)
(-88.3219999992 0 -8.83855199602e-11)
(-88.3220000019 0 -3.51196479379e-10)
(-88.3220000007 0 8.82861459447e-11)
(-88.3219999995 0 1.42098208914e-10)
(-88.3220000002 0 1.10064051175e-10)
(-88.321999999 0 -1.05546819962e-10)
(-88.3220000003 0 -7.0183957383e-12)
(-88.3220000001 0 -5.48411064076e-11)
(-88.3219999999 0 5.51546268098e-12)
(-88.3220000003 0 4.58184641952e-11)
(-88.3219999996 0 3.87950747412e-11)
(-88.322 0 -1.7271717568e-11)
(-88.322 0 1.08053045575e-11)
(-88.322 0 7.53689466597e-12)
(-88.322 0 7.01511944447e-12)
(-88.322 0 1.31553554284e-11)
(-88.3220000001 0 -6.42958071752e-11)
(-88.3219999999 0 2.65950408538e-10)
(-88.3220000001 0 -1.8066222736e-10)
(-88.3220000001 0 -7.1472603755e-11)
(-88.3219999996 0 -1.37445019176e-11)
(-88.3220000002 0 6.64026087315e-11)
(-88.322 0 2.54166074009e-10)
(-88.3219999999 0 -4.13969793407e-10)
(-88.3220000012 0 -4.32885902692e-10)
(-88.3220000002 0 2.96417994043e-10)
(-88.3219999994 0 3.11659349163e-10)
(-88.3220000006 0 4.04797147484e-11)
(-88.3219999984 0 3.76826162332e-10)
(-88.321999998 0 -8.25694150951e-11)
(-88.3220000002 0 4.224216943e-10)
(-88.3220000006 0 -2.62356435777e-10)
(-88.3220000008 0 -7.56914374205e-11)
(-88.3220000009 0 -2.35851483579e-10)
(-88.3220000004 0 4.46158952647e-10)
(-88.3219999992 0 2.20340925105e-11)
(-88.3219999985 0 -2.36878747116e-10)
(-88.3220000012 0 4.16377629993e-11)
(-88.3220000003 0 2.4621322063e-11)
(-88.3219999989 0 4.51162076112e-11)
(-88.3220000017 0 -7.55461354499e-11)
(-88.3220000007 0 5.77130921793e-11)
(-88.3219999991 0 -1.52689775456e-10)
(-88.3220000001 0 -1.65173952466e-10)
(-88.3219999999 0 4.02075273538e-10)
(-88.3219999997 0 -3.752879795e-10)
(-88.3220000011 0 -3.46676405178e-10)
(-88.3219999993 0 -6.10500276037e-11)
(-88.3219999985 0 -1.19033917476e-10)
(-88.3219999999 0 -1.4074099768e-12)
(-88.3220000008 0 -2.12062752752e-10)
(-88.3220000018 0 -1.06724745029e-10)
(-88.3220000001 0 2.82245061591e-11)
(-88.3219999984 0 -1.23146389917e-12)
(-88.3219999986 0 1.12633202537e-12)
(-88.3220000011 0 -2.53995316612e-11)
(-88.3220000018 0 2.81660117198e-13)
(-88.322 0 1.54880790813e-11)
(-88.321999999 0 -7.22054366036e-11)
(-88.3219999991 0 4.42827942639e-11)
(-88.3220000007 0 -2.88537877699e-10)
(-88.3219999997 0 -3.24538649526e-10)
(-88.3219999991 0 -5.39146274025e-10)
(-88.3220000007 0 2.58621957634e-10)
(-88.3220000017 0 -4.16805075259e-10)
(-88.3220000001 0 -3.61824468778e-10)
(-88.321999999 0 7.62922169685e-10)
(-88.3219999999 0 1.88265893814e-10)
(-88.3220000004 0 -1.21505745534e-10)
(-88.3220000004 0 -4.08622261977e-10)
(-88.3219999997 0 -1.37512810954e-10)
(-88.3219999999 0 5.91450839857e-10)
(-88.322 0 -1.41565564309e-10)
(-88.322 0 -9.45935038745e-11)
(-88.322 0 3.93602015055e-11)
(-88.322 0 7.37630852452e-11)
(-88.322 0 -1.65032757272e-10)
(-88.322 0 5.46636704297e-11)
(-88.322 0 3.12822028112e-11)
(-88.3220000001 0 7.22381011186e-12)
(-88.3219999996 0 -8.90152651488e-12)
(-88.322 0 -2.74541007062e-11)
(-88.3220000004 0 2.70990358558e-11)
(-88.322 0 -2.95356224174e-11)
(-88.3219999998 0 9.94949172593e-11)
(-88.3220000001 0 -3.61926502574e-11)
(-88.3220000003 0 6.4403067572e-11)
(-88.3219999998 0 -7.01161887521e-11)
(-88.322 0 4.61123182718e-11)
(-88.3220000001 0 3.23818985084e-10)
(-88.3219999998 0 3.60452417822e-11)
(-88.3219999999 0 8.45258104976e-11)
(-88.3220000001 0 4.63084133448e-10)
(-88.3219999999 0 -4.85763419005e-10)
(-88.3219999997 0 -4.24100948215e-10)
(-88.3219999998 0 6.55519791043e-11)
(-88.3220000001 0 2.30214309576e-10)
(-88.3220000004 0 -9.6091479278e-11)
(-88.322 0 8.38099719343e-11)
(-88.3220000004 0 1.85870597926e-10)
(-88.3219999999 0 -3.46319110373e-10)
(-88.3219999999 0 -6.03576267353e-10)
(-88.322 0 1.98073159987e-10)
(-88.3220000001 0 -4.31546834291e-10)
(-88.3219999999 0 -3.49823191262e-10)
(-88.3220000001 0 3.94865006613e-10)
(-88.3220000004 0 -2.02505611039e-11)
(-88.3219999987 0 -1.15539575798e-10)
(-88.3220000007 0 6.55043468976e-11)
(-88.3220000019 0 -1.52826352749e-10)
(-88.3219999993 0 -1.0584684206e-10)
(-88.3219999993 0 3.48156103547e-10)
(-88.3219999996 0 -4.80333407947e-10)
(-88.3219999999 0 -3.51026575708e-10)
(-88.3219999999 0 -4.73868617134e-10)
(-88.3219999999 0 -1.26614533103e-11)
(-88.3220000001 0 4.24030087152e-10)
(-88.322 0 2.87173837708e-11)
(-88.322 0 -3.68303549328e-10)
(-88.3219999999 0 -6.51500518384e-10)
(-88.3220000003 0 1.78163582981e-10)
(-88.322 0 2.03650984882e-10)
(-88.3219999997 0 2.0535430877e-10)
(-88.3220000003 0 -2.68839787018e-10)
(-88.3219999999 0 -2.76449111876e-10)
(-88.3220000001 0 5.04127570499e-11)
(-88.322 0 -4.62702857964e-10)
(-88.322 0 -4.2596167469e-10)
(-88.3220000002 0 -1.00708297887e-10)
(-88.3219999995 0 4.00821875905e-10)
(-88.3219999997 0 -7.09099184737e-11)
(-88.3220000013 0 -8.01803655161e-11)
(-88.3220000014 0 -1.06025557258e-10)
(-88.321999999 0 -4.6287021446e-11)
(-88.3219999982 0 2.02348422517e-10)
(-88.3220000001 0 -3.84350655748e-11)
(-88.3220000013 0 6.64307270465e-11)
(-88.322 0 -2.99911001832e-11)
(-88.3219999993 0 -1.83735631573e-11)
(-88.3220000004 0 3.48234267607e-11)
(-88.322 0 -2.62428868039e-12)
(-88.3219999996 0 -1.07768609561e-11)
(-88.3220000001 0 -3.42050431669e-11)
(-88.322 0 -2.37766260666e-11)
(-88.3220000002 0 4.11271281555e-11)
(-88.3219999998 0 -1.73185484993e-10)
(-88.3220000001 0 3.95140966079e-11)
(-88.322 0 9.72393241253e-11)
(-88.3219999996 0 -1.39275645507e-10)
(-88.3220000002 0 -1.42881961367e-10)
(-88.322 0 9.06674463328e-11)
(-88.3219999999 0 5.36893411904e-10)
(-88.3220000005 0 5.40904471106e-10)
(-88.3220000002 0 -2.91006097871e-10)
(-88.3219999999 0 -3.24883640189e-10)
(-88.3219999999 0 -1.95681788708e-10)
(-88.3219999996 0 -4.38879809752e-10)
(-88.3219999998 0 1.56055120511e-10)
(-88.3219999992 0 -4.06951506348e-10)
(-88.3219999993 0 3.48352931752e-10)
(-88.3220000012 0 -1.54603234932e-10)
(-88.3220000004 0 1.29591943126e-10)
(-88.3220000002 0 -2.62169925367e-10)
(-88.3220000001 0 1.8897146038e-13)
(-88.322 0 -4.15568768666e-11)
(-88.322 0 -4.44245306927e-12)
(-88.322 0 -6.94300755768e-11)
(-88.322 0 7.90540464759e-11)
(-88.322 0 3.60411331239e-11)
(-88.322 0 -8.69608833529e-11)
(-88.3220000001 0 1.46308164811e-10)
(-88.322 0 1.5276806146e-10)
(-88.322 0 -4.5797557961e-10)
(-88.322 0 5.34856315266e-10)
(-88.322 0 5.34947673514e-10)
(-88.322 0 8.68431431253e-11)
(-88.322 0 1.19114297943e-10)
(-88.322 0 -2.4072002412e-11)
(-88.322 0 7.65617385486e-11)
(-88.322 0 -1.45751043649e-11)
(-88.322 0 4.30369474735e-12)
(-88.322 0 5.36645562568e-12)
(-88.322 0 -2.20158990539e-11)
(-88.322 0 1.54860653542e-11)
(-88.322 0 -7.16056396895e-12)
(-88.322 0 1.29943274545e-10)
(-88.322 0 -5.00018116249e-11)
(-88.322 0 -4.22711989704e-11)
(-88.322 0 6.37835403477e-11)
(-88.322 0 -2.62385379212e-11)
(-88.322 0 3.31350250234e-11)
(-88.322 0 -1.65587336269e-10)
(-88.322 0 4.1800948948e-11)
(-88.322 0 -6.99443797494e-11)
(-88.322 0 -4.7032276155e-11)
(-88.322 0 2.09722997851e-10)
(-88.3220000003 0 -1.29193858487e-10)
(-88.3219999999 0 1.46822607397e-10)
(-88.3219999997 0 -1.71979890914e-10)
(-88.3220000001 0 -7.13643817073e-10)
(-88.322 0 1.51715124382e-10)
(-88.322 0 2.91578201874e-10)
(-88.322 0 -1.57822860141e-11)
(-88.322 0 -7.37618119517e-11)
(-88.322 0 1.70900159532e-10)
(-88.322 0 -7.93689408532e-11)
(-88.322 0 -2.84004280543e-11)
(-88.322 0 -2.01689836554e-11)
(-88.322 0 -5.33976358391e-11)
(-88.322 0 1.25388438359e-10)
(-88.3219999999 0 -1.28057683184e-11)
(-88.3220000003 0 1.78294386417e-10)
(-88.3220000003 0 -4.67380759025e-11)
(-88.3219999996 0 -6.64080178767e-11)
(-88.3219999989 0 -1.45484880885e-10)
(-88.321999999 0 6.68139463444e-11)
(-88.3220000017 0 1.19860395929e-10)
(-88.3220000019 0 -2.4275356218e-10)
(-88.3219999995 0 -1.01667544479e-10)
(-88.3220000001 0 -6.47893981212e-11)
(-88.3219999994 0 -9.81461486984e-11)
(-88.3219999998 0 4.20618680806e-11)
(-88.3219999993 0 5.76300863685e-11)
(-88.3219999992 0 -9.81621644955e-10)
(-88.3220000005 0 -7.91773993197e-10)
(-88.322 0 -2.30730513439e-10)
(-88.3219999997 0 1.10396043106e-10)
(-88.322 0 1.18570097437e-10)
(-88.3219999999 0 -1.46164798092e-10)
(-88.322 0 -4.64633813559e-11)
(-88.3219999998 0 6.10363050692e-11)
(-88.3219999999 0 5.27274068409e-11)
(-88.3220000003 0 -1.13569474894e-10)
(-88.322 0 -1.25556358133e-10)
(-88.322 0 -3.5119374451e-11)
(-88.322 0 -5.67655139322e-11)
(-88.322 0 1.04452856052e-12)
(-88.3219999999 0 -2.164253282e-11)
(-88.3220000001 0 -5.87906721734e-12)
(-88.3220000001 0 -2.26465700433e-11)
(-88.3219999999 0 -2.8942760587e-11)
(-88.322 0 -3.67851989396e-11)
(-88.322 0 -3.0435749026e-11)
(-88.322 0 -6.64105606059e-12)
(-88.322 0 4.48215892951e-11)
(-88.322 0 -1.63814901016e-10)
(-88.3219999999 0 -6.73858076761e-11)
(-88.3219999999 0 4.56979775605e-10)
(-88.322 0 3.24742372166e-10)
(-88.3220000001 0 -4.47290617382e-10)
(-88.3220000001 0 -3.43986227418e-10)
(-88.322 0 -1.17334174376e-10)
(-88.3219999999 0 6.13466130681e-11)
(-88.3220000002 0 -1.5141949191e-10)
(-88.3220000003 0 1.12779098153e-10)
(-88.322 0 -1.44324064453e-10)
(-88.3220000001 0 -3.97528920015e-10)
(-88.3219999997 0 -3.01603117687e-10)
(-88.3219999991 0 2.11168864266e-10)
(-88.3220000014 0 -4.0414248029e-10)
(-88.3220000015 0 -4.46669413195e-10)
(-88.3219999992 0 -4.02148608826e-10)
(-88.3219999999 0 4.29726202543e-10)
(-88.3219999994 0 3.31474859397e-10)
(-88.3219999991 0 -3.62112457725e-10)
(-88.3220000002 0 -2.44264270495e-10)
(-88.322 0 4.97175305197e-10)
(-88.322 0 1.06212850912e-10)
(-88.322 0 -3.2218893702e-10)
(-88.322 0 -5.2915959127e-10)
(-88.322 0 2.38472601725e-10)
(-88.3220000001 0 -2.36088865597e-10)
(-88.3219999999 0 -7.12677710768e-11)
(-88.3219999997 0 -5.00303330993e-10)
(-88.322 0 4.23379505661e-10)
(-88.3220000001 0 -1.09390455175e-10)
(-88.322 0 5.900140235e-11)
(-88.3220000005 0 2.39628923898e-10)
(-88.3219999998 0 -3.73225291186e-10)
(-88.3219999994 0 -8.8209385476e-10)
(-88.3220000011 0 -1.04475148221e-09)
(-88.3220000007 0 -3.78993395273e-10)
(-88.3219999995 0 9.35588315297e-10)
(-88.3219999998 0 5.4745569608e-10)
(-88.3219999993 0 -7.33348264343e-11)
(-88.3219999995 0 -6.43036280788e-10)
(-88.3220000012 0 6.90542425012e-10)
(-88.322000001 0 -2.58386826271e-11)
(-88.3219999996 0 -1.69973328574e-10)
(-88.3219999995 0 -2.12078817808e-11)
(-88.322 0 1.04959090109e-10)
(-88.3220000006 0 5.75634902555e-11)
(-88.3220000003 0 2.07435674753e-10)
(-88.3219999996 0 -2.11712997871e-10)
(-88.3219999999 0 1.59571754143e-10)
(-88.3220000004 0 -2.49194487489e-10)
(-88.3220000003 0 1.90369148647e-10)
(-88.3219999998 0 2.28320677233e-10)
(-88.322 0 -1.97397840167e-10)
(-88.3219999999 0 -3.9667152938e-10)
(-88.322 0 -1.4120615641e-10)
(-88.322 0 -4.44048869028e-10)
(-88.322 0 -4.36642065499e-10)
(-88.322 0 -1.67764214419e-10)
(-88.322 0 7.53843977174e-11)
(-88.322 0 3.25000560567e-11)
(-88.322 0 8.94252864667e-11)
(-88.3219999999 0 -3.22795849211e-10)
(-88.3220000003 0 -6.65023288346e-10)
(-88.3220000002 0 3.05298111123e-10)
(-88.3219999987 0 3.08255881989e-10)
(-88.3219999992 0 7.27841938287e-10)
(-88.3220000019 0 -4.37921663413e-10)
(-88.3220000013 0 -3.98733233273e-10)
(-88.3219999993 0 2.83809664512e-10)
(-88.3219999993 0 2.72374819705e-10)
(-88.322 0 2.70900648384e-10)
(-88.322 0 1.03855056681e-10)
(-88.3220000001 0 2.84425656305e-10)
(-88.322000001 0 1.01108170589e-10)
(-88.3220000002 0 2.60166013124e-11)
(-88.3219999988 0 9.04378378762e-11)
(-88.3220000002 0 -1.25016146502e-10)
(-88.3220000013 0 -3.78676138924e-10)
(-88.3220000003 0 5.04919131799e-10)
(-88.3219999981 0 7.27420385815e-10)
(-88.3219999982 0 4.49485625381e-10)
(-88.3220000016 0 7.00477754856e-10)
(-88.3220000011 0 -4.48231257348e-10)
(-88.3219999984 0 -2.69625489871e-11)
(-88.3219999993 0 1.54399845859e-11)
(-88.3220000017 0 -5.43384303071e-11)
(-88.3220000012 0 5.26474165868e-11)
(-88.3219999988 0 -8.19567067473e-11)
(-88.3219999994 0 3.73699052739e-11)
(-88.3220000006 0 -1.08206979915e-10)
(-88.3220000005 0 -2.71785205939e-10)
(-88.3219999989 0 2.19497864762e-10)
(-88.3219999991 0 3.05172366515e-10)
(-88.3220000011 0 3.93099304892e-10)
(-88.3219999995 0 -3.26492024008e-10)
(-88.3220000004 0 -3.33835322726e-10)
(-88.322000001 0 6.20518735033e-10)
(-88.3220000003 0 8.02500402295e-11)
(-88.3220000008 0 1.06318213035e-10)
(-88.3219999981 0 3.4052460511e-10)
(-88.3219999977 0 5.23260093483e-10)
(-88.322000002 0 6.02165748382e-10)
(-88.3220000016 0 -2.17003401965e-10)
(-88.3219999982 0 -3.35661128665e-10)
(-88.3219999981 0 -1.85424266194e-10)
(-88.322000001 0 4.22452610624e-10)
(-88.3220000006 0 3.69180192271e-10)
(-88.3219999994 0 2.79225695254e-10)
(-88.322 0 -1.6512770317e-10)
(-88.3219999998 0 -2.00927379587e-10)
(-88.3220000003 0 1.19233699701e-10)
(-88.322 0 -2.44307609617e-11)
(-88.3219999999 0 -5.38317178133e-11)
(-88.3219999999 0 -9.7016996834e-11)
(-88.3219999993 0 1.04761925008e-10)
(-88.3220000007 0 8.59043716058e-11)
(-88.3220000012 0 3.34071988591e-11)
(-88.3219999998 0 -2.98725905408e-11)
(-88.322 0 -2.66593778307e-10)
(-88.3220000004 0 -3.20224074385e-11)
(-88.3219999996 0 -7.46515651511e-11)
(-88.3219999991 0 -9.19077771803e-11)
(-88.3219999995 0 6.59107364307e-11)
(-88.322 0 -9.07721104603e-11)
(-88.3220000007 0 -1.09352962363e-11)
(-88.3220000016 0 2.7921412706e-12)
(-88.3219999989 0 -6.60795926376e-11)
(-88.321999998 0 1.83833114274e-10)
(-88.321999999 0 8.17558217308e-12)
(-88.3220000014 0 -3.28275003265e-10)
(-88.3220000023 0 -2.19629785577e-10)
(-88.3219999987 0 3.17106615834e-10)
(-88.3219999987 0 4.3500205588e-10)
(-88.322 0 1.2173246038e-10)
(-88.3220000001 0 -4.5832840594e-11)
(-88.3220000001 0 1.55641335111e-10)
(-88.3220000003 0 -8.24975211512e-11)
(-88.3220000005 0 1.54820318121e-10)
(-88.3220000001 0 3.98586352388e-10)
(-88.322 0 3.01690398139e-10)
(-88.3219999999 0 -2.09575664933e-10)
(-88.3220000003 0 4.90888384892e-10)
(-88.3219999995 0 2.84057847698e-10)
(-88.3219999991 0 5.9124300423e-10)
(-88.322 0 -4.85014507014e-10)
(-88.3220000012 0 -3.2811590772e-10)
(-88.3220000006 0 5.02062511178e-10)
(-88.3219999994 0 2.19798326755e-10)
(-88.322 0 -4.9881832755e-10)
(-88.322 0 -9.90441074523e-11)
(-88.3220000001 0 3.08380066029e-10)
(-88.322 0 5.49992366601e-10)
(-88.322 0 -3.74185364966e-10)
(-88.3220000007 0 2.21751644401e-10)
(-88.3219999993 0 4.27381139722e-11)
(-88.3219999986 0 5.06755363932e-10)
(-88.3219999997 0 -4.47106511951e-10)
(-88.3220000015 0 2.39836679072e-11)
(-88.3220000015 0 1.28086668867e-10)
(-88.3219999986 0 -4.87378261223e-10)
(-88.321999999 0 1.08828430535e-10)
(-88.3220000004 0 7.11827641288e-10)
(-88.3220000005 0 6.80896997725e-10)
(-88.3219999999 0 4.08297028818e-10)
(-88.3219999992 0 -4.15737033581e-10)
(-88.3220000012 0 -5.6568522708e-10)
(-88.3220000011 0 4.7979713118e-10)
(-88.3219999995 0 4.42529141706e-10)
(-88.3219999997 0 -3.57257136588e-10)
(-88.322 0 -4.84689714972e-10)
(-88.3219999999 0 1.21700098663e-10)
(-88.322 0 -1.65193608634e-10)
(-88.322 0 -3.27874432929e-11)
(-88.322 0 1.02170498912e-10)
(-88.322 0 -1.76276149051e-10)
(-88.322 0 1.79345007536e-10)
(-88.322 0 -8.956487019e-11)
(-88.322 0 1.50790575228e-10)
(-88.322 0 -1.98426050114e-10)
(-88.322 0 -1.17749618765e-10)
(-88.3220000001 0 -1.82985639466e-10)
(-88.3220000004 0 1.49425859917e-11)
(-88.322 0 3.20081132882e-10)
(-88.3219999996 0 1.66818747946e-10)
(-88.3220000001 0 -1.22482105371e-10)
(-88.3219999998 0 -2.55571904883e-10)
(-88.322 0 1.15513908281e-10)
(-88.3220000001 0 1.60111439501e-10)
(-88.3219999997 0 -1.90800949288e-10)
(-88.322 0 3.55722485235e-10)
(-88.322 0 6.59036146811e-10)
(-88.3220000001 0 -2.87670797632e-10)
(-88.3219999997 0 -3.18851607434e-10)
(-88.3219999997 0 -7.46939130391e-10)
(-88.3220000005 0 3.62248666544e-10)
(-88.322 0 3.66979207547e-10)
(-88.3219999998 0 -3.05148499506e-10)
(-88.3220000001 0 -2.75595544131e-10)
(-88.322 0 -3.03380692222e-10)
(-88.322 0 -1.94309369368e-10)
(-88.322 0 -2.07407071002e-10)
(-88.322 0 -1.01655659998e-10)
(-88.322 0 9.74054767953e-11)
(-88.322 0 1.11015346739e-10)
(-88.3219999997 0 -1.41284786238e-10)
(-88.3220000003 0 3.09229814175e-10)
(-88.3220000002 0 -2.93014042466e-10)
(-88.3219999996 0 -6.12586754278e-10)
(-88.322 0 -4.94404331255e-10)
(-88.3219999998 0 -1.04846560074e-10)
(-88.3220000001 0 -8.58810387742e-11)
(-88.3220000005 0 -4.37316717997e-10)
(-88.3219999999 0 2.29568157419e-10)
(-88.322 0 3.23340941456e-10)
(-88.322 0 -3.61931413768e-10)
(-88.3220000003 0 4.21812030301e-11)
(-88.3220000001 0 -4.8567366329e-10)
(-88.3219999997 0 -4.28527802027e-10)
(-88.322 0 1.05973177395e-10)
(-88.3219999999 0 -7.18581793233e-10)
(-88.322 0 -4.25083461113e-10)
(-88.3219999999 0 -4.34984468676e-10)
(-88.3220000006 0 2.16531249341e-10)
(-88.3220000006 0 2.90936182651e-10)
(-88.3219999987 0 -5.07447761245e-10)
(-88.3219999991 0 -9.14164625806e-11)
(-88.3220000014 0 -4.49496308927e-10)
(-88.3220000003 0 2.58714476731e-10)
(-88.3219999997 0 -4.33773165573e-10)
(-88.3220000003 0 -8.28944560282e-10)
(-88.3219999997 0 -2.0587439094e-10)
(-88.3219999999 0 7.30240447612e-11)
(-88.322 0 2.91865005036e-10)
(-88.322 0 3.25130777697e-11)