/*--------------------------------*- C++ -*----------------------------------*\
  =========                 |
  \\      /  F ield         | OpenFOAM: The Open Source CFD Toolbox
   \\    /   O peration     | Website:  https://openfoam.org
    \\  /    A nd           | Version:  6
     \\/     M anipulation  |
\*---------------------------------------------------------------------------*/
FoamFile
{
    version     2.0;
    format      ascii;
    class       volScalarField;
    location    "4.94e-05";
    object      p;
}
// * * * * * * * * * * * * * * * * * * * * * * * * * * * * * * * * * * * * * //

dimensions      [1 -1 -2 0 0 0 0];

internalField   nonuniform List<scalar> 
8192
(
6000000.00078
5999999.99938
6000000.00031
6000000.00122
6000000.00506
5999999.998
6000000.00193
5999999.99928
6000000.00059
5999999.99985
6000000.00021
5999999.99985
6000000.00059
6000000.00141
6000000.00076
6000000.0007
6000000.00054
5999999.9979
5999999.99901
6000000.0006
5999999.9986
5999999.99732
6000000.0017
5999999.99986
5999999.99946
5999999.99992
5999999.99781
5999999.99903
5999999.99823
5999999.99885
6000000.00025
6000000.00074
5999999.99632
5999999.99391
6000000.00774
6000000.00748
5999999.99912
6000000.00429
5999999.99967
5999999.99677
6000000.00427
5999999.99736
6000000.00041
5999999.99987
6000000.00053
6000000.00046
6000000.00021
5999999.99961
5999999.99928
6000000.00167
5999999.99668
6000000.00087
6000000.0034
5999999.99553
5999999.99602
6000000.00119
5999999.99997
6000000.00345
6000000.00012
6000000.00617
5999999.99654
5999999.99721
5999999.99699
6000000.00279
6000000.00092
6000000.00233
6000000.00009
6000000.00416
5999999.99536
6000000.00338
5999999.99859
5999999.99629
6000000.00256
6000000.00271
6000000.0068
5999999.99673
5999999.99459
6000000.00638
6000000.00245
5999999.99521
5999999.99447
5999999.99191
6000000.00318
6000000.00582
6000000.00012
5999999.99922
6000000.00638
6000000.00468
5999999.99724
5999999.99716
5999999.99823
5999999.99829
5999999.99688
6000000.00476
5999999.99662
6000000.00252
6000000.00164
5999999.99948
6000000.00376
5999999.9982
5999999.99971
5999999.99988
5999999.9997
6000000.00032
5999999.9988
6000000.00028
6000000.00012
6000000
5999999.99998
5999999.99998
6000000.00013
6000000.00037
5999999.99939
6000000.00068
5999999.99961
6000000.00164
6000000.00009
5999999.99847
6000000.00072
5999999.9989
5999999.99911
5999999.99873
6000000.00027
5999999.99861
6000000.00018
5999999.99951
6000000.00029
6000000.00035
6000000.00625
6000000.00055
5999999.9964
6000000.00067
5999999.99836
5999999.99959
5999999.99997
5999999.99956
6000000.00091
6000000.00091
5999999.99852
6000000.00366
6000000.00075
6000000.0032
6000000.00436
5999999.9966
5999999.99704
5999999.99804
6000000.00211
6000000.00229
5999999.99986
5999999.99991
5999999.99877
6000000.00072
5999999.99462
6000000.00024
5999999.99689
5999999.9968
6000000.00177
6000000.00151
5999999.99827
5999999.99909
5999999.99978
5999999.99968
6000000.00011
6000000.00046
5999999.9996
6000000.00226
6000000.00019
6000000.00116
5999999.99752
6000000.00063
5999999.99712
6000000.00342
6000000.00193
6000000.00273
6000000.00195
6000000.00414
6000000.00222
6000000.00015
5999999.99407
6000000.00312
6000000.00183
5999999.99775
6000000.00065
5999999.99785
6000000.00305
6000000.00058
6000000.00209
5999999.99267
5999999.99254
6000000.00186
6000000.00627
6000000.00419
5999999.99926
5999999.99913
6000000.00135
6000000.00055
5999999.99983
6000000.00001
5999999.99997
6000000.00001
6000000.00015
6000000.00011
6000000.00001
5999999.99729
5999999.99749
6000000.00314
5999999.99921
5999999.99997
6000000.00004
5999999.99998
6000000.00011
6000000.00033
6000000.00044
5999999.99949
5999999.99994
6000000.00012
5999999.99962
6000000.00051
5999999.99995
5999999.995
6000000.00121
6000000.00192
5999999.99712
6000000.00092
6000000.00685
5999999.9941
5999999.99684
6000000.00528
6000000.00855
5999999.99186
5999999.99442
6000000.00133
6000000.00404
5999999.99534
6000000.00337
6000000.00042
6000000.00482
5999999.99823
6000000.00715
6000000.00359
5999999.99058
6000000.00049
6000000.00687
5999999.99857
6000000.00544
5999999.9934
5999999.99814
6000000.0013
6000000.0036
6000000.00406
6000000.00048
6000000.00242
6000000.00083
5999999.99899
5999999.99929
5999999.99924
5999999.99995
5999999.9987
6000000.00064
5999999.99777
6000000.00193
5999999.99816
5999999.99953
5999999.99921
5999999.99962
5999999.99991
5999999.99992
6000000.00154
6000000.00158
5999999.99626
6000000.00045
6000000.002
5999999.99988
6000000.00308
5999999.99536
5999999.99676
6000000.00499
6000000.00062
5999999.99629
5999999.99456
5999999.99988
5999999.9937
5999999.99851
5999999.99457
6000000.00184
6000000.00593
5999999.99565
6000000.00064
5999999.99912
6000000.00136
5999999.9993
5999999.99934
6000000.00161
5999999.99771
6000000.00232
6000000.00029
6000000.00006
6000000.00016
6000000.00001
6000000.00001
6000000.00004
6000000.00033
5999999.99886
6000000.00155
5999999.99731
5999999.99966
5999999.99799
6000000.00213
6000000.00656
5999999.9987
5999999.99315
6000000.00326
6000000.00755
5999999.99755
6000000.00351
5999999.99823
6000000.0075
5999999.99621
5999999.99636
5999999.99614
6000000.00163
6000000.00269
5999999.99473
6000000.00205
6000000.00124
5999999.99977
6000000.00112
5999999.99805
6000000.00057
6000000.00075
5999999.99748
6000000.00258
6000000.00223
6000000.00093
6000000.00024
5999999.99973
5999999.99684
5999999.99722
6000000.00084
6000000.00117
5999999.99973
5999999.99818
5999999.99737
6000000.00068
5999999.99653
6000000.0008
5999999.99647
5999999.99423
5999999.99661
6000000.00371
5999999.99696
5999999.99634
6000000.00726
5999999.99874
6000000.0031
5999999.99985
5999999.99612
6000000.00391
5999999.99499
6000000.00402
5999999.99995
5999999.99929
6000000.00139
5999999.9997
6000000.00115
6000000.00009
6000000.00105
6000000.0017
5999999.99791
6000000.0032
6000000.00154
5999999.99692
6000000.00201
6000000.00031
6000000.00004
6000000.00389
5999999.99758
6000000.00419
6000000.0028
5999999.99399
5999999.99164
5999999.99526
5999999.99867
6000000.00142
6000000.00251
6000000.00335
5999999.99363
5999999.99139
6000000.00161
5999999.99584
5999999.9988
6000000.00504
5999999.99818
5999999.99872
6000000.00248
5999999.99629
5999999.99797
6000000.0065
5999999.99605
5999999.99903
5999999.99438
6000000.00232
6000000.00519
5999999.9995
5999999.99804
5999999.99156
6000000.00464
5999999.9989
6000000.00486
5999999.99904
5999999.99637
6000000.00343
5999999.9948
5999999.99388
6000000.00039
6000000.00281
5999999.99823
5999999.99808
5999999.99772
6000000.00183
6000000.00188
5999999.99721
6000000.00217
5999999.99842
5999999.99942
6000000.00119
5999999.99896
5999999.99957
5999999.99992
6000000.00072
6000000.00138
5999999.99718
6000000.00175
6000000.00052
5999999.99954
5999999.99754
6000000.0019
6000000.00044
5999999.99897
6000000.00192
6000000.00151
5999999.99761
5999999.99947
6000000.00037
5999999.99921
5999999.9964
5999999.99681
5999999.99867
5999999.99518
6000000.00287
6000000.00208
6000000.00016
6000000.00057
5999999.99899
6000000.00339
5999999.99801
6000000.00311
6000000.00203
5999999.99555
6000000.00454
6000000.00133
6000000.00051
6000000.00078
5999999.99812
6000000.00217
6000000.00033
5999999.99895
6000000.00145
6000000.00008
5999999.99926
5999999.99698
6000000.00484
5999999.99645
5999999.99957
6000000.00197
5999999.99667
6000000.00403
5999999.9957
6000000.00283
5999999.99903
5999999.99906
5999999.99707
6000000.00259
6000000.0063
5999999.99809
5999999.99799
6000000.00126
6000000.00282
5999999.99791
5999999.99711
6000000.00632
5999999.99792
5999999.99971
5999999.99957
6000000.00085
6000000.00335
5999999.99761
6000000.00468
5999999.99835
5999999.99865
6000000.00205
6000000.00029
5999999.99959
6000000.00347
6000000.00035
6000000.00311
5999999.99863
5999999.99918
5999999.99952
5999999.99757
5999999.99403
6000000.00283
6000000.00144
5999999.99844
5999999.99956
5999999.99863
6000000.00016
5999999.99805
6000000.0012
5999999.99866
6000000.00055
5999999.99939
5999999.99992
6000000.00034
5999999.99809
6000000.00091
6000000.00025
5999999.99986
5999999.99989
5999999.9998
6000000.00018
6000000.00038
5999999.99975
5999999.99997
5999999.99982
6000000.00002
5999999.99981
5999999.99992
5999999.9997
5999999.99937
5999999.99998
6000000
5999999.99981
5999999.99998
6000000.00008
5999999.99988
5999999.99857
6000000.00259
5999999.99826
5999999.99928
5999999.99902
5999999.99926
6000000.00012
5999999.99991
6000000.00001
5999999.99969
6000000.00161
6000000.00062
6000000.00011
6000000.00025
5999999.99932
5999999.99754
6000000.00273
6000000.00319
5999999.99838
5999999.99313
5999999.99311
6000000.00134
6000000.00655
6000000.00267
6000000.00393
5999999.99663
6000000.0046
5999999.99332
6000000.00109
5999999.99607
6000000.00039
5999999.99995
6000000.00333
5999999.99888
6000000.00202
5999999.99766
6000000.00182
5999999.99965
6000000.00003
6000000.00026
6000000.00039
6000000.00004
5999999.99955
6000000.00317
5999999.99963
6000000.00001
6000000.00002
5999999.99992
5999999.99989
6000000.00003
6000000.00063
5999999.99883
5999999.99879
5999999.99884
5999999.9993
5999999.99989
5999999.99856
5999999.9965
6000000.00186
6000000.00078
6000000.00088
6000000.00232
5999999.99742
5999999.99729
6000000.00761
6000000.00343
6000000.00149
6000000.00302
5999999.99711
5999999.99876
6000000.00105
5999999.99912
6000000.00092
6000000.00021
6000000.00058
6000000.0006
6000000.00256
5999999.99945
5999999.99764
6000000.00054
5999999.99967
5999999.99969
6000000.00474
5999999.99912
5999999.99775
6000000.00309
6000000.0017
6000000.00046
6000000.00104
5999999.99635
5999999.99754
6000000.00482
6000000.00563
6000000.00278
5999999.99661
5999999.99759
6000000.00325
5999999.99991
5999999.9979
5999999.99669
6000000.00432
6000000.00325
5999999.99972
6000000.00199
5999999.99774
6000000.00143
5999999.99949
6000000.00063
6000000.00081
6000000.00049
6000000.0012
5999999.99946
5999999.99906
6000000.00144
6000000.00111
5999999.9939
5999999.99432
6000000.00355
6000000.00074
5999999.99926
5999999.99841
6000000.00319
5999999.99708
6000000.00083
6000000.00145
6000000.00302
5999999.99325
6000000.00288
6000000.00165
6000000.00504
5999999.99549
5999999.99774
6000000.00154
6000000.00049
5999999.99472
5999999.99771
6000000.00509
6000000.00595
5999999.99944
6000000.0018
6000000.00129
6000000.00429
5999999.99723
6000000.00149
6000000.0018
5999999.99528
6000000.00327
6000000.00344
6000000.00562
6000000.00872
5999999.99531
5999999.99798
6000000.00388
6000000.00678
5999999.99441
5999999.99484
6000000.00263
5999999.99796
6000000
6000000.00068
5999999.99598
6000000.00184
5999999.9969
6000000.00053
5999999.99588
5999999.99405
6000000.00401
6000000.00334
5999999.99837
6000000.00323
6000000.00127
6000000.00005
5999999.9998
5999999.99847
5999999.997
6000000.00388
6000000.0076
5999999.99646
5999999.99855
5999999.99227
6000000.00495
6000000.00623
5999999.99557
5999999.99732
5999999.99579
5999999.99723
5999999.9964
6000000.00107
5999999.99908
6000000.00196
5999999.99896
5999999.9998
6000000.00346
5999999.99419
5999999.99461
5999999.99619
6000000.00723
6000000.00027
5999999.99847
6000000.00097
5999999.99997
6000000.00272
5999999.99903
6000000.00159
6000000.00607
5999999.99622
5999999.99404
5999999.99239
6000000.00307
6000000.00278
5999999.99204
5999999.99646
5999999.99682
6000000.00139
5999999.99866
5999999.99294
6000000.00401
6000000.00473
5999999.99989
6000000.00091
5999999.99998
6000000.00066
6000000.0009
6000000.00055
6000000.00005
5999999.99999
5999999.99991
5999999.99988
6000000.00015
6000000.00036
5999999.99826
6000000.00217
6000000.00675
5999999.99998
6000000.00098
6000000.00297
5999999.99924
6000000.00361
6000000.00127
5999999.99992
5999999.9999
5999999.99986
6000000.00151
5999999.99736
5999999.99708
6000000.0011
5999999.996
6000000.00113
5999999.99859
5999999.99947
5999999.99917
5999999.99986
5999999.9998
6000000.00004
6000000.00042
5999999.99782
6000000.00349
5999999.99855
5999999.99898
5999999.99992
5999999.99781
6000000.00109
6000000.0012
6000000.00013
6000000.00043
5999999.99884
6000000.00389
5999999.99984
6000000.00002
6000000.00053
5999999.9996
6000000.00041
5999999.99755
6000000.00608
6000000.00358
5999999.99466
5999999.99836
6000000.00227
5999999.99805
6000000.00357
5999999.99883
5999999.99986
6000000.00006
5999999.99945
6000000.00028
5999999.99911
6000000.00077
5999999.99693
6000000.00197
6000000.00107
6000000.00104
5999999.99962
6000000.00013
5999999.99681
6000000.00706
6000000.00363
5999999.99375
6000000.00148
6000000.0031
6000000.00467
5999999.99588
5999999.99527
6000000.00429
5999999.99856
5999999.9994
6000000.00026
5999999.99997
5999999.99992
5999999.99996
6000000.00002
5999999.99989
5999999.99993
5999999.99988
6000000.00026
5999999.99827
6000000.0027
5999999.99717
5999999.99961
6000000.00132
5999999.99286
6000000.00522
6000000.0051
6000000.0017
5999999.9993
6000000.00318
6000000.00548
5999999.99644
5999999.99517
6000000.00299
5999999.99908
6000000.00333
6000000.00541
6000000.00055
6000000.00598
6000000.00009
5999999.99979
6000000.00084
6000000.00071
5999999.99984
6000000.00007
6000000.00362
5999999.99783
6000000.00067
6000000.0018
6000000.00324
6000000.00298
5999999.99443
6000000.00205
6000000.00071
6000000.00093
5999999.99901
6000000.00505
6000000.00362
5999999.99746
6000000.00301
6000000.0003
5999999.9992
6000000.00065
5999999.9994
6000000.00231
5999999.99328
6000000.00264
6000000.00153
6000000.00018
5999999.99873
6000000.00018
6000000.00129
5999999.99973
6000000.00001
6000000.00002
6000000
6000000.00002
5999999.99989
6000000.00001
5999999.99981
5999999.99993
6000000.00032
5999999.99892
6000000.00179
5999999.99958
5999999.9998
5999999.99967
6000000.0003
5999999.9982
6000000.0008
6000000.00049
6000000.0007
5999999.99744
5999999.99793
6000000.00111
6000000.00196
5999999.99839
6000000.00107
5999999.99815
6000000.00303
6000000.00271
6000000.00047
6000000.00033
5999999.99963
5999999.99896
6000000.00227
5999999.99526
6000000.00664
5999999.99679
5999999.99449
6000000.00371
6000000.00431
6000000.00529
5999999.99993
6000000.00019
5999999.99442
5999999.99535
5999999.9952
6000000.00192
5999999.99772
6000000.00517
5999999.99914
5999999.99732
6000000.00072
5999999.99719
6000000.00211
5999999.99805
6000000.00524
5999999.99255
5999999.99518
6000000.00418
5999999.99474
5999999.99673
5999999.99813
6000000.002
6000000.00178
6000000.00125
6000000.00002
6000000.00105
6000000.00075
6000000.00261
5999999.99637
6000000.00229
6000000.00136
5999999.99973
5999999.99815
5999999.99996
6000000.00005
5999999.99831
5999999.99882
6000000.00148
5999999.99991
6000000.00162
6000000.00224
5999999.9972
5999999.99901
6000000.00477
5999999.99918
5999999.9997
5999999.99988
6000000.00001
6000000.00001
6000000.00014
6000000.00004
5999999.99982
6000000.00058
6000000.00012
5999999.9964
6000000.00098
5999999.99952
5999999.99986
5999999.99999
6000000.00041
5999999.99793
6000000.00368
6000000.002
5999999.99514
6000000.00668
5999999.99384
5999999.99297
6000000.00271
6000000.00541
5999999.99136
5999999.99752
5999999.99707
5999999.99928
6000000.00145
5999999.99789
6000000.00129
5999999.99601
5999999.99695
6000000.00063
5999999.9973
6000000.00356
5999999.99809
6000000.00165
6000000.00303
5999999.99538
5999999.99507
5999999.99402
5999999.99931
6000000.00488
6000000.00223
5999999.99607
5999999.99303
6000000.00414
6000000.00297
5999999.99331
5999999.99911
6000000.00587
6000000.00452
5999999.99781
5999999.9977
6000000.00461
5999999.99969
6000000.00002
6000000.00001
5999999.99983
6000000.00097
6000000.00154
5999999.99845
5999999.99818
5999999.99854
6000000.0005
6000000.00178
5999999.99948
6000000.00072
5999999.99825
5999999.99771
6000000.00155
6000000.0006
6000000.00031
6000000.00002
6000000.00003
5999999.99991
5999999.9999
6000000.00042
5999999.99903
5999999.99874
6000000.00015
6000000.00251
5999999.99788
5999999.99987
6000000.00009
5999999.99435
6000000.00041
6000000.00061
6000000.00467
6000000.00176
5999999.99935
6000000.00148
6000000.00046
5999999.99784
6000000.00317
5999999.99639
6000000.00317
6000000.00069
6000000.00497
5999999.99911
5999999.99972
6000000.00595
6000000.00239
6000000.00381
6000000.00218
5999999.99633
5999999.9987
6000000.00309
5999999.9995
5999999.99745
5999999.99703
6000000.00266
5999999.99764
5999999.99889
5999999.9967
6000000.00028
6000000.00229
5999999.99832
5999999.99841
5999999.99883
5999999.99979
5999999.99984
6000000.00155
6000000.0006
6000000.00075
5999999.99896
6000000.00172
6000000.0016
5999999.99832
5999999.99985
6000000.00011
6000000.00002
6000000.00011
5999999.99995
6000000.00113
6000000.00119
5999999.99798
6000000.00292
6000000.00201
5999999.99621
6000000.00521
5999999.99484
5999999.99824
6000000.00266
6000000.00656
6000000.00302
6000000.00258
6000000.00173
5999999.99235
5999999.99719
5999999.99865
5999999.99905
6000000.00395
6000000.00481
5999999.99333
5999999.99691
5999999.99475
6000000.00593
6000000.00269
6000000.00307
5999999.99866
6000000.00097
6000000.00075
6000000.00199
5999999.99953
5999999.99908
5999999.99979
6000000.00003
5999999.99992
6000000.00089
5999999.9992
6000000.00119
5999999.9998
6000000.00005
5999999.99864
5999999.99594
6000000.00361
6000000.00119
5999999.99595
5999999.99466
6000000.00577
5999999.99812
5999999.99564
6000000.00169
6000000.00638
5999999.99521
6000000.00437
5999999.99878
5999999.99773
6000000.00594
5999999.99925
6000000.00015
5999999.99998
6000000
6000000.00007
6000000.00001
6000000.00007
6000000.00002
6000000.00007
6000000.0002
6000000.00025
6000000.00003
6000000.00017
5999999.99929
6000000.00115
6000000.00147
5999999.99477
6000000.00329
6000000.00508
5999999.99859
6000000.00182
6000000.00251
6000000.00229
5999999.99909
6000000.00029
5999999.99382
6000000.00127
5999999.99946
6000000.0013
6000000.00304
5999999.99901
5999999.99878
5999999.99938
5999999.99884
6000000.00026
5999999.99845
6000000.00123
6000000.00184
5999999.99828
5999999.99944
5999999.9987
6000000.00141
5999999.99969
5999999.99999
5999999.99979
5999999.9993
6000000.00088
5999999.99907
5999999.998
6000000.00374
5999999.99625
6000000.00155
5999999.99887
5999999.99926
5999999.99987
5999999.99919
6000000.00201
5999999.99542
6000000.002
5999999.99941
5999999.99919
6000000.00004
5999999.99944
5999999.99987
5999999.99957
6000000.00115
5999999.99842
5999999.99947
5999999.99995
5999999.99993
5999999.99992
5999999.99998
6000000.00009
5999999.99993
5999999.9997
6000000
5999999.9999
5999999.9999
6000000.00001
5999999.99939
6000000.00193
5999999.9995
6000000.00016
6000000.00014
6000000.00145
5999999.99806
6000000.00156
5999999.99616
6000000.00264
6000000.0017
6000000.00202
6000000.00237
5999999.9969
5999999.9992
5999999.99801
6000000.00256
5999999.99897
5999999.99803
6000000.00176
5999999.99822
5999999.99911
5999999.99961
6000000.00006
6000000.00435
6000000.00189
6000000.00334
5999999.9991
6000000.00034
6000000.00251
5999999.99494
6000000.00077
5999999.99646
6000000.00543
6000000.00201
5999999.99409
5999999.99541
5999999.99514
6000000.00595
6000000.0019
6000000.0059
5999999.997
5999999.99797
6000000.00078
5999999.995
5999999.99409
5999999.99691
5999999.99821
6000000.00231
5999999.99476
5999999.9967
5999999.99341
6000000.00054
5999999.99508
5999999.99805
5999999.99661
5999999.99652
5999999.99505
5999999.99454
6000000.00413
6000000.0014
6000000.0014
5999999.99388
6000000.00245
5999999.99961
6000000.00022
6000000.00122
5999999.99856
6000000.00032
5999999.99587
6000000.00324
5999999.99478
5999999.99487
6000000.00253
5999999.99456
5999999.99517
6000000.00602
5999999.99534
5999999.99386
6000000.00105
6000000.00203
5999999.99958
6000000.0014
6000000.00058
6000000.00038
5999999.99996
6000000.0007
5999999.99952
6000000.00059
5999999.99898
6000000.00031
6000000.00023
5999999.99992
5999999.99993
6000000.00013
6000000.00167
5999999.99984
5999999.99966
6000000.0013
6000000.00011
5999999.99946
5999999.99965
5999999.99948
5999999.99908
6000000.00029
6000000.00006
6000000.00036
5999999.99953
5999999.99908
6000000.00066
6000000.00216
5999999.99819
6000000.00088
6000000.00299
6000000.00268
5999999.99606
5999999.99742
6000000.00337
5999999.99933
6000000.0015
6000000.00053
5999999.9966
6000000.003
6000000.00251
6000000.00005
5999999.99865
6000000.00005
5999999.99831
6000000.00365
6000000.00029
6000000.0012
5999999.99874
5999999.9975
6000000.00646
6000000.00595
5999999.99317
5999999.99741
6000000.00182
6000000.00141
5999999.99884
6000000.00122
5999999.9999
6000000.00336
5999999.99917
6000000.00251
5999999.99967
5999999.99954
5999999.99993
6000000.00004
5999999.99996
5999999.99998
5999999.99998
6000000.00001
6000000.00004
6000000.00014
6000000
6000000
6000000.00001
5999999.99999
6000000.00019
5999999.99998
6000000.00001
5999999.99993
5999999.99996
6000000.00021
6000000.00027
5999999.99995
6000000.00014
5999999.99999
6000000
5999999.99966
6000000.0003
5999999.99994
6000000.00032
5999999.9994
5999999.99927
5999999.99923
6000000.00059
5999999.99966
6000000.00288
5999999.99936
5999999.99968
5999999.99963
6000000.00018
6000000.00003
6000000.00013
5999999.99993
6000000.00001
6000000
6000000.00016
5999999.99903
6000000.00062
5999999.99888
6000000.00362
5999999.9994
5999999.99886
6000000.00149
5999999.99884
6000000.00386
6000000.00376
5999999.99862
5999999.9998
6000000.00627
6000000.00084
6000000.0007
6000000.00096
5999999.99969
6000000.00005
6000000.00007
6000000.00026
6000000.00008
6000000.00007
6000000.00031
5999999.999
6000000.00126
6000000.00077
6000000.0005
6000000.00034
5999999.9993
5999999.99998
5999999.99992
6000000.00002
6000000.00002
6000000.00102
5999999.99888
5999999.99719
6000000.00243
5999999.99788
6000000.00228
5999999.9963
5999999.99906
5999999.9997
5999999.99689
5999999.99978
6000000.00419
5999999.9949
5999999.99377
6000000.00209
5999999.99319
5999999.9938
6000000.00103
5999999.9972
5999999.99855
5999999.9957
6000000.00237
6000000.00236
5999999.99663
6000000.00424
5999999.99793
5999999.99773
6000000.00246
6000000.00268
5999999.99955
5999999.99928
5999999.99963
6000000.00007
5999999.99981
5999999.99928
6000000.00186
5999999.99945
6000000.00207
5999999.99857
5999999.99811
6000000.0001
5999999.99886
5999999.99938
5999999.99819
5999999.99857
5999999.99865
5999999.99981
5999999.99857
6000000.00368
5999999.99948
5999999.99773
5999999.99981
5999999.99999
5999999.99996
5999999.99983
5999999.99983
6000000.00022
5999999.99998
5999999.99996
6000000.00014
6000000.00013
5999999.99998
6000000.00007
5999999.99998
6000000.00019
6000000.00072
6000000.0005
5999999.99763
5999999.99792
6000000.00122
6000000.00021
5999999.99998
5999999.99998
6000000.00001
5999999.99989
5999999.99964
6000000.00011
5999999.99999
5999999.99905
6000000.00071
5999999.99971
6000000.0015
5999999.99896
6000000.00023
6000000.00185
5999999.99944
6000000.00035
5999999.99935
6000000.00003
5999999.99991
6000000
5999999.99983
5999999.99991
6000000.00003
5999999.99932
5999999.99846
6000000.00019
5999999.99909
6000000.00238
5999999.9979
6000000.00113
6000000.00063
5999999.99986
6000000.00039
6000000.00134
5999999.99905
5999999.99609
6000000.00378
6000000.00018
6000000.00014
6000000.00075
6000000.00191
6000000.00038
5999999.99724
6000000.00434
6000000.00302
5999999.99972
5999999.99797
6000000.00218
6000000.00176
5999999.99885
6000000.00522
6000000.00027
6000000.00247
5999999.99694
5999999.99752
6000000.00132
5999999.99904
5999999.99971
5999999.99684
6000000.00404
6000000.00106
5999999.99869
6000000.0003
5999999.99839
6000000.00349
5999999.99835
6000000.00174
5999999.99446
6000000.00645
6000000.00493
5999999.99824
6000000.00112
5999999.9927
5999999.99235
6000000.00327
6000000.00243
6000000.00437
5999999.99788
5999999.99522
6000000.00423
5999999.99605
5999999.99883
5999999.99884
5999999.99802
6000000.00117
5999999.99901
6000000.00022
5999999.99983
5999999.99947
6000000.00038
5999999.9977
6000000.00217
5999999.99959
5999999.99879
6000000.00267
5999999.99794
6000000.00136
5999999.99607
6000000.00037
5999999.99999
5999999.99964
5999999.99845
5999999.99844
6000000.00153
6000000.00182
5999999.99917
6000000.00681
6000000.00254
5999999.99391
6000000.00309
5999999.99849
6000000.00693
6000000.00543
5999999.99741
5999999.9958
5999999.99877
6000000.00645
6000000.00196
5999999.99708
5999999.99581
5999999.99533
6000000.0029
5999999.99689
5999999.99471
5999999.99805
5999999.99479
6000000.00402
5999999.99731
5999999.99642
5999999.99863
6000000.00174
5999999.99742
5999999.99733
6000000.00134
6000000.00129
5999999.99623
5999999.99764
5999999.99551
5999999.99558
5999999.99737
5999999.99864
6000000.00091
5999999.99278
5999999.99401
6000000.00188
6000000.00046
5999999.9952
5999999.99563
5999999.99502
5999999.9937
6000000.0043
5999999.99685
5999999.99238
6000000.00021
5999999.9959
6000000.00244
6000000.00501
5999999.99264
5999999.99454
5999999.99763
6000000.0055
6000000.00078
5999999.99761
6000000.00312
6000000.00585
5999999.99978
6000000.006
5999999.99626
5999999.99361
6000000.00364
6000000.00062
5999999.99953
5999999.99466
5999999.99643
6000000.00266
5999999.99614
5999999.99843
6000000.00212
5999999.9989
6000000.00298
6000000.00711
6000000.00319
5999999.99842
5999999.99527
5999999.99726
6000000.00575
6000000.00223
5999999.99562
5999999.99721
6000000.00082
6000000.00621
6000000.00093
5999999.99895
5999999.99973
6000000.00148
5999999.99862
5999999.99909
6000000.00341
6000000.00174
5999999.99695
6000000.00263
5999999.99669
5999999.99961
5999999.99734
6000000.00043
6000000.00225
5999999.99418
6000000.00002
6000000.00105
5999999.99418
5999999.99751
6000000.00291
5999999.9981
5999999.99811
6000000.00251
5999999.9984
5999999.99661
5999999.99557
5999999.99794
5999999.9959
5999999.9993
5999999.99794
6000000.00676
5999999.99767
6000000.00029
6000000.00529
5999999.99862
6000000.00139
5999999.99997
6000000.00843
5999999.99719
6000000.00087
6000000.00632
6000000.00681
5999999.99897
5999999.9981
6000000.00995
6000000.00778
6000000.00609
5999999.99803
5999999.99808
6000000.00797
6000000.00834
6000000.00184
6000000.00671
6000000.0023
5999999.99511
6000000.0068
6000000.00782
6000000.00015
5999999.9973
6000000.00745
6000000.00255
5999999.99409
6000000.00241
6000000.00217
6000000.00907
6000000.00765
5999999.99769
6000000.00235
6000000.00711
5999999.99616
5999999.99956
6000000.00646
6000000.00915
6000000.00057
6000000.00633
6000000.00554
6000000.0049
5999999.99802
6000000.00129
6000000.00839
6000000.00952
6000000.01007
6000000.003
6000000.00296
6000000.00642
6000000.01027
5999999.99971
6000000.00294
6000000.00574
5999999.99661
6000000.00563
6000000.0052
6000000.00988
6000000.00419
6000000.00739
6000000.00569
5999999.99361
6000000.00684
6000000.00207
5999999.99862
6000000.00874
5999999.99875
5999999.99977
5999999.99857
6000000.0004
5999999.99831
5999999.99959
5999999.99896
5999999.99948
5999999.99928
5999999.99949
5999999.9972
5999999.99774
5999999.99955
5999999.99812
6000000.00026
5999999.99826
5999999.99869
5999999.99832
6000000.00013
5999999.9979
5999999.99748
5999999.99856
5999999.99966
5999999.99853
5999999.99861
5999999.99959
5999999.99748
5999999.99843
5999999.99929
5999999.99583
5999999.99849
6000000.00023
5999999.99918
5999999.99673
5999999.99935
5999999.99739
5999999.99995
5999999.99886
5999999.99868
5999999.99676
5999999.99896
6000000.00007
5999999.9978
5999999.99945
5999999.9996
5999999.9987
5999999.99882
5999999.9991
5999999.99663
5999999.99688
5999999.99941
5999999.99994
6000000.00021
6000000.00036
5999999.99828
5999999.99894
5999999.99791
5999999.99834
5999999.99826
5999999.99875
5999999.99959
6000000.00037
6000000.00209
5999999.9983
5999999.99936
5999999.99947
5999999.99989
5999999.99972
6000000.00061
5999999.99986
5999999.99953
6000000.00019
5999999.99974
5999999.99971
5999999.99978
5999999.99979
6000000.00042
6000000.00006
5999999.99978
5999999.99956
6000000.00028
6000000.00034
5999999.99984
6000000.00035
5999999.99991
6000000.00034
5999999.99992
5999999.99985
6000000.00024
6000000.00002
6000000.00038
5999999.99987
5999999.99998
5999999.99954
6000000.00031
6000000.00048
6000000.00023
6000000.00047
5999999.99996
6000000.00049
6000000.00047
5999999.99973
6000000.00032
5999999.99993
6000000.00029
6000000.0001
5999999.99968
6000000.00082
6000000.00019
6000000.00049
6000000.00027
5999999.99954
5999999.99987
5999999.99975
6000000.00011
6000000.00002
6000000.00035
6000000.00041
5999999.99974
6000000
6000000.0002
6000000.00009
6000000.00026
6000000.00014
6000000.00021
6000000.00043
5999999.99976
6000000.00057
6000000.00072
6000000.00105
6000000.00096
6000000.00105
6000000.00061
6000000.00102
6000000.00086
6000000.00119
6000000.00084
6000000.00079
6000000.00089
6000000.00088
6000000.00083
6000000.0008
6000000.00089
6000000.00097
6000000.00082
6000000.00099
6000000.0011
6000000.0009
6000000.00112
6000000.00121
6000000.00074
6000000.001
6000000.00097
6000000.00091
6000000.00075
6000000.00056
6000000.00099
6000000.00089
6000000.00088
6000000.00085
6000000.00087
6000000.00115
6000000.00073
6000000.00094
6000000.00075
6000000.00083
6000000.00065
6000000.00085
6000000.00101
6000000.00109
6000000.00098
6000000.00091
6000000.00092
6000000.00092
6000000.00077
6000000.00104
6000000.0012
6000000.00126
6000000.00074
6000000.0009
6000000.00082
6000000.00095
6000000.00098
6000000.00094
6000000.001
6000000.00104
6000000.001
6000000.00102
6000000.00091
6000000.00125
6000000.00136
6000000.00085
5999999.99902
5999999.99869
5999999.99882
5999999.99903
5999999.99874
5999999.99914
5999999.99881
5999999.9988
5999999.99871
5999999.99872
5999999.99886
5999999.99898
5999999.99903
5999999.99884
5999999.99862
5999999.99874
5999999.99879
5999999.99897
5999999.99887
5999999.99902
5999999.99879
5999999.99877
5999999.99912
5999999.99897
5999999.99872
5999999.99889
5999999.99935
5999999.99874
5999999.99894
5999999.99909
5999999.99901
5999999.99941
5999999.99907
5999999.99907
5999999.99889
5999999.99887
5999999.99908
5999999.9987
5999999.99859
5999999.9987
5999999.99904
5999999.99909
5999999.99888
5999999.999
5999999.99896
5999999.99897
5999999.99924
5999999.99902
5999999.99881
5999999.99899
5999999.99886
5999999.99865
5999999.99882
5999999.99863
5999999.99891
5999999.99888
5999999.99894
5999999.99898
5999999.99888
5999999.99885
5999999.9988
5999999.99904
5999999.9988
5999999.99887
5999999.99951
5999999.99931