/*--------------------------------*- C++ -*----------------------------------*\
  =========                 |
  \\      /  F ield         | OpenFOAM: The Open Source CFD Toolbox
   \\    /   O peration     | Website:  https://openfoam.org
    \\  /    A nd           | Version:  6
     \\/     M anipulation  |
\*---------------------------------------------------------------------------*/
FoamFile
{
    version     2.0;
    format      ascii;
    class       volVectorField;
    location    "4.94e-05";
    object      U;
}
// * * * * * * * * * * * * * * * * * * * * * * * * * * * * * * * * * * * * * //

dimensions      [0 1 -1 0 0 0 0];

internalField   nonuniform List<vector> 
8192
(
(-88.322 0 -2.89963707055e-10)
(-88.3219999996 0 -9.43332669303e-11)
(-88.3220000002 0 -7.24669262342e-11)
(-88.3220000004 0 -3.08514499181e-10)
(-88.3219999994 0 -6.63585372678e-11)
(-88.3219999996 0 -4.03690672137e-12)
(-88.3220000003 0 -2.95951444684e-12)
(-88.3219999999 0 1.36924197514e-10)
(-88.322 0 -2.86185367844e-10)
(-88.322 0 -5.96366209695e-10)
(-88.3219999999 0 -7.56443356172e-10)
(-88.322 0 3.83029829356e-10)
(-88.3220000002 0 6.80323246305e-10)
(-88.3220000001 0 -7.97270070419e-10)
(-88.3219999998 0 -6.39122551291e-10)
(-88.3219999999 0 3.83943943751e-10)
(-88.3219999998 0 3.45642492324e-10)
(-88.3219999999 0 7.21823019082e-10)
(-88.3220000003 0 -4.32716137809e-10)
(-88.3219999999 0 -6.10155825644e-10)
(-88.3219999996 0 2.6328591184e-10)
(-88.3220000004 0 3.99276558225e-10)
(-88.3220000004 0 -6.58908832507e-10)
(-88.3219999998 0 -5.95854872714e-10)
(-88.322 0 1.90464261286e-10)
(-88.3219999998 0 2.02346078894e-10)
(-88.3219999999 0 2.55231133157e-10)
(-88.3219999999 0 2.12558149758e-10)
(-88.3220000002 0 3.37822038987e-10)
(-88.3220000002 0 -1.77222632221e-10)
(-88.322 0 2.33718185527e-10)
(-88.3219999996 0 -7.52370952872e-11)
(-88.3219999988 0 1.37608176708e-10)
(-88.322000002 0 5.75913648349e-10)
(-88.3220000029 0 -9.12939771694e-10)
(-88.3219999986 0 -6.59426502522e-10)
(-88.3219999995 0 -8.61130732809e-12)
(-88.3219999996 0 -5.8792403305e-10)
(-88.3219999985 0 1.68185890532e-10)
(-88.3220000007 0 1.93181434058e-10)
(-88.3220000001 0 -7.52602571479e-11)
(-88.3219999997 0 7.68381816626e-11)
(-88.3220000002 0 -1.60663557161e-11)
(-88.322 0 -1.57249207147e-11)
(-88.322 0 -6.23110207706e-11)
(-88.322 0 -4.2013814987e-11)
(-88.322 0 -2.20657596185e-11)
(-88.322 0 -2.01703017381e-11)
(-88.3220000001 0 3.43684908879e-11)
(-88.3219999998 0 -1.07809586428e-10)
(-88.3219999999 0 1.49138203314e-10)
(-88.3220000007 0 -7.77011973911e-11)
(-88.3219999994 0 -2.27075361703e-10)
(-88.3219999992 0 3.77371381699e-10)
(-88.3220000012 0 2.07849621714e-10)
(-88.3220000007 0 -2.02208721176e-10)
(-88.322 0 -2.6599058588e-11)
(-88.3219999998 0 -1.86129566658e-10)
(-88.3220000002 0 -4.82142949187e-11)
(-88.3219999991 0 -3.30019821918e-10)
(-88.3219999983 0 3.60886189187e-10)
(-88.3219999998 0 4.10203819783e-10)
(-88.322000001 0 3.70164674766e-10)
(-88.3220000014 0 -5.38445503013e-11)
(-88.3220000001 0 -3.67374642731e-10)
(-88.3219999998 0 -9.63908273493e-11)
(-88.3220000002 0 1.50871875567e-10)
(-88.3219999996 0 2.13416223711e-11)
(-88.322 0 2.91356541434e-10)
(-88.3220000002 0 -1.24305341293e-10)
(-88.3219999994 0 6.16343899249e-11)
(-88.3220000006 0 3.23678305625e-12)
(-88.3220000014 0 -1.01644296239e-11)
(-88.3220000008 0 -6.86199703127e-11)
(-88.3219999981 0 7.62555284699e-11)
(-88.3219999971 0 -2.67101171856e-10)
(-88.3220000021 0 -2.69265808903e-11)
(-88.3220000026 0 -1.97691935959e-10)
(-88.3219999978 0 -3.36374576809e-10)
(-88.3219999982 0 3.36199897066e-10)
(-88.3219999995 0 2.56883173764e-10)
(-88.3220000018 0 1.51877455007e-10)
(-88.3220000024 0 -3.61624056865e-10)
(-88.3219999988 0 -2.04871469956e-10)
(-88.3219999983 0 -6.93140151321e-11)
(-88.3220000015 0 -3.16166537987e-11)
(-88.3220000017 0 2.21647933252e-10)
(-88.3219999986 0 -7.0983634378e-11)
(-88.3219999985 0 4.69086106614e-10)
(-88.322 0 -1.85047726984e-10)
(-88.3220000001 0 3.1376235568e-10)
(-88.3219999999 0 3.10361435186e-10)
(-88.3220000006 0 -9.23845584308e-11)
(-88.322 0 -5.86312272529e-12)
(-88.3219999998 0 9.15397613762e-11)
(-88.3220000005 0 3.14328962371e-11)
(-88.3219999998 0 -2.57586535493e-10)
(-88.3220000003 0 -4.86026830432e-10)
(-88.322 0 6.06804343321e-10)
(-88.3219999995 0 6.8194355459e-10)
(-88.3220000002 0 1.08799655531e-11)
(-88.322 0 3.15261319717e-10)
(-88.322 0 -1.6540595423e-10)
(-88.322 0 -2.48424367144e-10)
(-88.322 0 1.92610864651e-10)
(-88.3220000001 0 -1.05681605404e-10)
(-88.322 0 8.85103974816e-11)
(-88.322 0 -2.25641358785e-10)
(-88.322 0 -4.06832074481e-10)
(-88.322 0 -3.54784023382e-10)
(-88.322 0 -3.44190417427e-10)
(-88.322 0 -4.33993784757e-10)
(-88.322 0 -3.91576845428e-10)
(-88.322 0 -7.22875945249e-11)
(-88.322 0 3.1732264657e-10)
(-88.3220000001 0 -1.02520794558e-10)
(-88.3219999998 0 6.54457732301e-11)
(-88.322 0 -1.17904882761e-10)
(-88.3220000001 0 -3.1045283446e-10)
(-88.3219999999 0 4.20925321922e-10)
(-88.322 0 -1.96770298213e-10)
(-88.3220000001 0 -1.48825926566e-10)
(-88.322 0 -3.81207082259e-10)
(-88.3219999999 0 9.71116045114e-10)
(-88.322 0 3.64155289078e-10)
(-88.3220000001 0 -8.31829269955e-10)
(-88.3220000002 0 -1.14918960824e-09)
(-88.322 0 -4.6187222832e-10)
(-88.3219999993 0 8.90467380291e-11)
(-88.3219999987 0 1.25078386957e-10)
(-88.322 0 -3.77659612e-11)
(-88.3220000001 0 2.20348807538e-10)
(-88.3219999999 0 -1.84639845856e-10)
(-88.3220000001 0 1.65881995234e-10)
(-88.322 0 -5.26245769072e-11)
(-88.322 0 -1.27878283067e-10)
(-88.3220000002 0 2.53365007983e-10)
(-88.3219999998 0 5.5352533362e-10)
(-88.3220000003 0 7.17071429584e-10)
(-88.3220000002 0 -2.56028704683e-10)
(-88.322 0 -5.71567350031e-10)
(-88.3220000006 0 5.53933311755e-10)
(-88.3219999987 0 5.73399225944e-10)
(-88.3219999987 0 -4.08529911311e-10)
(-88.3220000002 0 -3.50864795539e-10)
(-88.322000001 0 -6.41313785892e-10)
(-88.3220000009 0 4.67985745562e-10)
(-88.3219999994 0 5.62755379841e-10)
(-88.3219999992 0 -2.20036316064e-10)
(-88.3219999998 0 -2.09313094905e-10)
(-88.3220000004 0 6.20662090079e-10)
(-88.3219999993 0 5.92429134288e-10)
(-88.3220000002 0 -1.00216972561e-10)
(-88.3220000001 0 -1.87563753437e-10)
(-88.3219999989 0 -1.02323507263e-10)
(-88.3220000008 0 1.19549428701e-10)
(-88.3220000008 0 -1.12155535194e-10)
(-88.3219999998 0 7.3416218704e-11)
(-88.3219999999 0 8.36842285751e-11)
(-88.3220000004 0 1.53336940261e-12)
(-88.322 0 -5.04596123136e-10)
(-88.322 0 4.79714064019e-10)
(-88.3220000002 0 6.79192058415e-10)
(-88.322 0 -4.63629542416e-10)
(-88.3220000003 0 -7.54655174309e-10)
(-88.322 0 8.82112429396e-10)
(-88.3219999997 0 4.47618473347e-10)
(-88.3219999999 0 -3.67672021886e-10)
(-88.322 0 -4.77989526225e-10)
(-88.322 0 2.21199372427e-10)
(-88.3220000005 0 -3.02366535081e-10)
(-88.3220000011 0 -7.27700059492e-11)
(-88.3220000003 0 -3.82845478807e-10)
(-88.3219999998 0 6.41293123758e-11)
(-88.3220000001 0 -6.58627119603e-10)
(-88.3219999999 0 -6.08306550347e-10)
(-88.3219999994 0 5.62920383898e-10)
(-88.3219999985 0 2.7395045837e-11)
(-88.322 0 -4.54483183909e-10)
(-88.3220000011 0 1.91880554866e-10)
(-88.3219999994 0 -4.73446644903e-10)
(-88.3219999999 0 4.43631501055e-10)
(-88.322 0 9.83199743451e-11)
(-88.3220000004 0 -3.6686027937e-10)
(-88.3220000012 0 -4.1330711939e-10)
(-88.3220000003 0 -4.39905069069e-10)
(-88.321999998 0 -1.72083669514e-10)
(-88.3219999977 0 -2.1991131923e-10)
(-88.322000002 0 -1.70672112206e-10)
(-88.3220000029 0 9.05403421455e-11)
(-88.3220000002 0 6.5529406834e-11)
(-88.3219999999 0 9.0519137947e-11)
(-88.322 0 6.79101567854e-10)
(-88.3220000001 0 2.04289920048e-10)
(-88.322 0 -8.21542086722e-11)
(-88.322 0 1.78003340606e-10)
(-88.322 0 -2.19686265536e-10)
(-88.322 0 4.76159233556e-11)
(-88.322 0 1.74439865071e-11)
(-88.322 0 4.0544115437e-11)
(-88.322 0 4.07628562973e-11)
(-88.322 0 1.04264955675e-10)
(-88.3219999998 0 -4.10642476657e-11)
(-88.3219999997 0 1.78262116443e-10)
(-88.3220000006 0 -2.08893320734e-11)
(-88.3220000002 0 4.54141663939e-10)
(-88.3219999997 0 3.75942007409e-10)
(-88.322 0 -3.290810695e-10)
(-88.322 0 -2.45584294351e-10)
(-88.322 0 -3.2366422045e-10)
(-88.322 0 5.543404262e-10)
(-88.322 0 4.82602437846e-10)
(-88.322 0 -5.44049231792e-10)
(-88.3219999999 0 -5.03416464279e-10)
(-88.322 0 3.38340869694e-10)
(-88.322 0 5.53421989176e-10)
(-88.322 0 -2.3102887052e-10)
(-88.322 0 6.10134736983e-10)
(-88.3219999995 0 -1.96353616192e-10)
(-88.3219999999 0 6.39159505504e-11)
(-88.3220000007 0 -1.02578005918e-10)
(-88.3219999996 0 -3.05650125977e-10)
(-88.3219999999 0 1.18085811169e-10)
(-88.3220000016 0 -9.90400796199e-11)
(-88.3219999988 0 6.81258879883e-12)
(-88.3219999981 0 -1.00593837151e-10)
(-88.3220000019 0 4.84752756835e-11)
(-88.3220000023 0 1.01163605245e-10)
(-88.3219999976 0 -8.37166380822e-11)
(-88.3219999976 0 3.91794648907e-10)
(-88.3220000024 0 -3.67032132127e-11)
(-88.3220000018 0 4.52336213291e-11)
(-88.3219999988 0 -9.35123151485e-11)
(-88.3219999998 0 5.372332423e-13)
(-88.3220000006 0 -1.08528756589e-10)
(-88.3220000002 0 2.27625795721e-10)
(-88.3219999997 0 4.37930494982e-10)
(-88.3220000006 0 3.53021511005e-10)
(-88.3220000013 0 3.74339705781e-10)
(-88.3219999976 0 2.94963007371e-10)
(-88.3219999989 0 5.58421013327e-10)
(-88.3220000019 0 1.96327747782e-10)
(-88.3219999998 0 -3.86566963749e-10)
(-88.3220000002 0 1.09662778622e-10)
(-88.3219999992 0 -2.33224247276e-10)
(-88.3219999989 0 2.33861419665e-10)
(-88.3220000016 0 6.17550243077e-10)
(-88.3220000009 0 -5.73774364928e-10)
(-88.3220000001 0 -2.04612351905e-10)
(-88.3219999997 0 4.51192392768e-10)
(-88.3219999996 0 3.92672375262e-11)
(-88.3219999998 0 -5.17092718057e-10)
(-88.3219999995 0 -1.14959500396e-09)
(-88.3219999997 0 8.70452580012e-10)
(-88.3220000001 0 1.05758289677e-09)
(-88.322 0 8.24503364096e-10)
(-88.3220000005 0 -3.26167948767e-10)
(-88.3220000001 0 -1.50654807998e-10)
(-88.322 0 2.8577979402e-10)
(-88.3220000004 0 -4.42158488702e-11)
(-88.322 0 -6.94156686913e-11)
(-88.3219999996 0 -6.73564261357e-12)
(-88.322 0 -7.24699427318e-12)
(-88.322 0 4.55635983822e-11)
(-88.322 0 1.54560455675e-11)
(-88.322 0 -1.10204153268e-11)
(-88.3220000001 0 8.1221463467e-11)
(-88.3220000002 0 -3.04502573365e-10)
(-88.3219999996 0 -3.18066729511e-10)
(-88.3219999998 0 5.65940829091e-11)
(-88.3220000003 0 -2.96880534956e-11)
(-88.322 0 3.97448840748e-11)
(-88.3220000002 0 1.84127782462e-10)
(-88.3219999994 0 1.73684944174e-10)
(-88.3219999994 0 -3.09713286427e-11)
(-88.3220000016 0 -6.02668759461e-12)
(-88.3220000012 0 3.82025272822e-11)
(-88.321999998 0 4.18112691936e-11)
(-88.3219999983 0 9.77373590839e-11)
(-88.3220000005 0 -1.28273194327e-10)
(-88.3220000001 0 1.5187222756e-10)
(-88.322 0 7.25951991739e-12)
(-88.3219999999 0 2.84388055378e-10)
(-88.3220000006 0 2.91572543753e-10)
(-88.3220000014 0 3.99072777435e-10)
(-88.3219999993 0 -3.9015737586e-11)
(-88.3219999994 0 1.47002326778e-10)
(-88.3220000005 0 4.27956854734e-10)
(-88.3220000001 0 -3.84509182293e-11)
(-88.322 0 -5.73033405093e-10)
(-88.3219999998 0 -7.96827003978e-10)
(-88.3220000002 0 2.47704480262e-10)
(-88.3219999997 0 9.46162499188e-10)
(-88.3219999999 0 -1.14879056632e-09)
(-88.3220000004 0 -2.9216502798e-10)
(-88.3219999999 0 1.36590751272e-10)
(-88.322 0 4.14895312492e-10)
(-88.322 0 -1.84199200097e-10)
(-88.322 0 2.52455109797e-10)
(-88.322 0 8.37434449115e-11)
(-88.322 0 3.47933946851e-10)
(-88.3219999999 0 -4.81508907903e-11)
(-88.3220000002 0 6.52852282828e-10)
(-88.3219999997 0 5.17568331306e-10)
(-88.3219999996 0 -4.84301551265e-10)
(-88.3220000004 0 -1.51748052081e-10)
(-88.3220000001 0 3.35436089932e-10)
(-88.3220000008 0 1.83255271889e-11)
(-88.3219999992 0 3.78758731469e-10)
(-88.3219999983 0 -4.72398418597e-10)
(-88.3220000016 0 -9.13492469459e-11)
(-88.322000002 0 -2.54989356524e-10)
(-88.3219999991 0 2.15338677165e-10)
(-88.3219999998 0 1.11228863915e-10)
(-88.3219999998 0 -2.98197952003e-10)
(-88.3220000001 0 8.38155334721e-10)
(-88.3219999992 0 7.29384356146e-10)
(-88.3219999984 0 4.26869395423e-10)
(-88.3220000002 0 1.7087564835e-10)
(-88.3220000005 0 -3.77977271284e-11)
(-88.3220000002 0 -1.33576473112e-10)
(-88.3219999989 0 -2.53991257448e-10)
(-88.322 0 4.69955885138e-10)
(-88.3220000006 0 6.69565790091e-10)
(-88.3219999999 0 1.36183516672e-11)
(-88.3219999999 0 4.43307838905e-10)
(-88.322 0 3.20702022978e-10)
(-88.322 0 -4.73646122259e-10)
(-88.3220000001 0 2.60067432614e-11)
(-88.3219999998 0 9.95860593706e-11)
(-88.3220000003 0 -6.27353082079e-11)
(-88.3220000004 0 2.27646375051e-10)
(-88.3219999998 0 2.05419935798e-10)
(-88.3219999998 0 -6.0227766243e-10)
(-88.3219999998 0 5.2502103767e-10)
(-88.3219999996 0 4.33930586039e-10)
(-88.3219999997 0 5.79655131501e-10)
(-88.3220000004 0 1.19199264223e-10)
(-88.3220000004 0 -7.80247813853e-10)
(-88.3219999999 0 -2.67197534832e-10)
(-88.3219999998 0 9.55244643418e-10)
(-88.3219999998 0 1.14969960297e-09)
(-88.3220000004 0 -6.88771800617e-10)
(-88.3219999999 0 -6.60872719665e-10)
(-88.3219999998 0 -4.94513926337e-10)
(-88.3219999998 0 -1.25307628538e-10)
(-88.321999999 0 1.24367515787e-10)
(-88.3219999997 0 -5.19853748698e-10)
(-88.3220000014 0 5.81710002873e-10)
(-88.3220000001 0 8.2827122069e-10)
(-88.321999999 0 -1.5959675622e-10)
(-88.3220000021 0 -3.73907596424e-10)
(-88.3220000008 0 1.06221181699e-10)
(-88.3219999994 0 1.98108402043e-10)
(-88.3220000002 0 1.26855040301e-10)
(-88.3219999988 0 -1.45247833466e-10)
(-88.3220000004 0 -7.38610394583e-12)
(-88.322 0 -5.83739268267e-11)
(-88.3219999999 0 4.8623780742e-12)
(-88.3220000004 0 7.44818715921e-11)
(-88.3219999995 0 5.48768525338e-11)
(-88.322 0 -3.14412789725e-11)
(-88.322 0 2.52500755846e-11)
(-88.322 0 1.37681794191e-11)
(-88.322 0 1.08841690591e-11)
(-88.322 0 7.53382077043e-12)
(-88.3220000002 0 -9.81614160827e-11)
(-88.3219999998 0 3.27279765524e-10)
(-88.3220000002 0 -2.47082163968e-10)
(-88.3220000002 0 -8.28209614247e-11)
(-88.3219999994 0 -2.67675304174e-11)
(-88.3220000002 0 1.50563905453e-10)
(-88.3220000001 0 3.12131873933e-10)
(-88.3219999998 0 -4.3554078815e-10)
(-88.3220000013 0 -5.13601495721e-10)
(-88.3220000001 0 3.05899740819e-10)
(-88.3219999994 0 4.02237456904e-10)
(-88.3220000007 0 5.67642637861e-11)
(-88.3219999981 0 4.34641064361e-10)
(-88.3219999977 0 -9.81284787863e-11)
(-88.3220000002 0 5.33476449625e-10)
(-88.3220000008 0 -2.47735900088e-10)
(-88.322000001 0 -8.18703241492e-11)
(-88.322000001 0 -2.73110962107e-10)
(-88.3220000005 0 5.31921826601e-10)
(-88.3219999989 0 2.13736334903e-11)
(-88.3219999982 0 -3.45801177521e-10)
(-88.3220000014 0 6.09750418844e-11)
(-88.3220000004 0 3.72670014756e-11)
(-88.3219999989 0 5.64497903898e-11)
(-88.3220000019 0 -1.05973874451e-10)
(-88.3220000006 0 6.1567496848e-11)
(-88.3219999989 0 -1.95701473571e-10)
(-88.3220000002 0 -1.72448644073e-10)
(-88.3219999998 0 4.06917985568e-10)
(-88.3219999996 0 -3.84356036758e-10)
(-88.3220000013 0 -3.12842886897e-10)
(-88.3219999992 0 -5.9880491767e-11)
(-88.3219999983 0 -1.23416138829e-10)
(-88.3219999998 0 2.30882926257e-11)
(-88.3220000009 0 -2.99740718109e-10)
(-88.3220000022 0 -1.50162160919e-10)
(-88.322 0 4.93598274995e-11)
(-88.3219999981 0 -5.13368632989e-12)
(-88.3219999984 0 -3.36486855862e-12)
(-88.3220000013 0 -4.34209616859e-11)
(-88.322000002 0 3.51416298005e-12)
(-88.322 0 -5.24523779749e-11)
(-88.321999999 0 -7.81788607822e-11)
(-88.3219999988 0 5.09061040074e-11)
(-88.3220000007 0 -3.71246529778e-10)
(-88.3219999996 0 -3.79733044929e-10)
(-88.3219999988 0 -6.34977869473e-10)
(-88.3220000009 0 3.61754120533e-10)
(-88.3220000019 0 -4.93760844056e-10)
(-88.322 0 -3.89637999307e-10)
(-88.3219999989 0 8.67448297416e-10)
(-88.3219999999 0 2.17069907558e-10)
(-88.3220000006 0 -1.19328197334e-10)
(-88.3220000005 0 -5.13154255968e-10)
(-88.3219999996 0 -1.48263085274e-10)
(-88.3219999999 0 6.57266305758e-10)
(-88.3220000001 0 -2.19394595028e-10)
(-88.3219999999 0 -7.21181761938e-11)
(-88.3220000001 0 6.48118916252e-11)
(-88.322 0 1.01718453544e-10)
(-88.3219999999 0 -2.36350479998e-10)
(-88.322 0 7.69298970948e-11)
(-88.322 0 4.60857962785e-11)
(-88.3220000001 0 1.44204449289e-11)
(-88.3219999995 0 -8.58653719567e-12)
(-88.322 0 -5.29455328845e-11)
(-88.3220000005 0 3.41213355015e-11)
(-88.3219999999 0 -4.9646365972e-11)
(-88.3219999997 0 1.42315083965e-10)
(-88.3220000002 0 -5.50047126786e-11)
(-88.3220000004 0 6.24229328477e-11)
(-88.3219999998 0 -6.55221237956e-11)
(-88.3220000001 0 5.08586994165e-11)
(-88.3220000002 0 3.18288816954e-10)
(-88.3219999997 0 -5.23590107038e-12)
(-88.3219999998 0 1.07935130613e-10)
(-88.3220000002 0 4.93801435417e-10)
(-88.3219999999 0 -5.47706599459e-10)
(-88.3219999996 0 -5.40153766793e-10)
(-88.3219999997 0 2.54294295949e-11)
(-88.3220000002 0 2.8741900035e-10)
(-88.3220000006 0 -1.02177286345e-10)
(-88.322 0 1.06458133336e-10)
(-88.3220000006 0 2.45331565247e-10)
(-88.3219999998 0 -4.36249884217e-10)
(-88.3219999998 0 -7.00972044459e-10)
(-88.3219999999 0 1.83604785699e-10)
(-88.3220000002 0 -4.46296060419e-10)
(-88.3219999999 0 -3.61785537254e-10)
(-88.3220000001 0 4.6986129341e-10)
(-88.3220000005 0 -4.87921916919e-11)
(-88.3219999985 0 -1.23629327334e-10)
(-88.3220000008 0 9.79893873682e-11)
(-88.322000002 0 -2.08699649792e-10)
(-88.3219999992 0 -1.01405575999e-10)
(-88.3219999993 0 4.15353109414e-10)
(-88.3219999996 0 -5.23387223266e-10)
(-88.322 0 -3.6736009216e-10)
(-88.322 0 -5.63852901017e-10)
(-88.3219999998 0 2.66011063775e-11)
(-88.3220000002 0 5.00667541501e-10)
(-88.322 0 2.21603554868e-11)
(-88.3219999999 0 -3.98536266184e-10)
(-88.3219999998 0 -7.72944589255e-10)
(-88.3220000005 0 2.34886644072e-10)
(-88.322 0 1.88424469202e-10)
(-88.3219999996 0 2.75519679944e-10)
(-88.3220000004 0 -2.74136484374e-10)
(-88.3219999998 0 -3.18400306452e-10)
(-88.3220000002 0 8.53318968689e-11)
(-88.3219999999 0 -5.4466746935e-10)
(-88.322 0 -5.25579459037e-10)
(-88.3220000003 0 -8.98664933138e-11)
(-88.3219999994 0 4.28940821775e-10)
(-88.3219999996 0 -9.14144161084e-11)
(-88.3220000014 0 -1.09871922451e-10)
(-88.3220000017 0 -1.24246604274e-10)
(-88.3219999989 0 -5.7197093162e-11)
(-88.3219999979 0 2.54532017272e-10)
(-88.3220000002 0 -6.43567406512e-11)
(-88.3220000014 0 1.12692709533e-10)
(-88.3219999999 0 -3.9942096093e-11)
(-88.3219999992 0 -2.88995264747e-11)
(-88.3220000006 0 5.16392201761e-11)
(-88.322 0 -1.71437647396e-11)
(-88.3219999994 0 -1.41903174443e-11)
(-88.3220000002 0 -5.52593147434e-11)
(-88.3220000001 0 -2.26960024756e-11)
(-88.3220000003 0 5.34977515085e-11)
(-88.3219999997 0 -2.1531813331e-10)
(-88.3220000002 0 7.0945479421e-11)
(-88.322 0 1.42204698862e-10)
(-88.3219999994 0 -1.89713303199e-10)
(-88.3220000003 0 -2.43377267693e-10)
(-88.3220000001 0 1.50174834575e-10)
(-88.3219999998 0 6.51200733122e-10)
(-88.3220000006 0 6.27792937912e-10)
(-88.3220000003 0 -2.71762532526e-10)
(-88.3219999999 0 -4.04046614707e-10)
(-88.3219999998 0 -2.82518092444e-10)
(-88.3219999995 0 -4.90048531965e-10)
(-88.3219999998 0 1.84790347423e-10)
(-88.3219999991 0 -4.67675769812e-10)
(-88.3219999992 0 3.58686107492e-10)
(-88.3220000013 0 -2.1367137896e-10)
(-88.3220000005 0 1.65475243437e-10)
(-88.3220000003 0 -3.3249265128e-10)
(-88.322 0 4.16363855426e-11)
(-88.322 0 -5.70486578335e-11)
(-88.322 0 9.29842308572e-12)
(-88.322 0 -8.25429686601e-11)
(-88.322 0 9.83621403851e-11)
(-88.322 0 5.03171988719e-11)
(-88.322 0 -1.04682600946e-10)
(-88.3220000001 0 1.92813383063e-10)
(-88.322 0 1.65965509723e-10)
(-88.322 0 -4.9428983166e-10)
(-88.322 0 5.83685732728e-10)
(-88.322 0 5.42574702251e-10)
(-88.3220000001 0 6.00217140564e-11)
(-88.322 0 1.23129527905e-10)
(-88.322 0 -5.32732190068e-11)
(-88.322 0 1.01469423879e-10)
(-88.322 0 -1.04344493426e-11)
(-88.322 0 -3.25595472445e-12)
(-88.322 0 2.20582419924e-11)
(-88.322 0 -3.03840391183e-11)
(-88.322 0 1.50367908954e-11)
(-88.322 0 -2.57485161868e-11)
(-88.322 0 2.09809546432e-10)
(-88.322 0 -8.72794456474e-11)
(-88.322 0 -4.76375127949e-11)
(-88.322 0 1.11425592191e-10)
(-88.322 0 -2.3002523527e-11)
(-88.322 0 5.68747268944e-11)
(-88.322 0 -2.41525129269e-10)
(-88.322 0 5.70946109149e-11)
(-88.322 0 -1.19940712128e-10)
(-88.322 0 -4.36056811857e-12)
(-88.322 0 1.85002507843e-10)
(-88.3220000004 0 -2.14806150552e-10)
(-88.3219999998 0 1.87072940927e-10)
(-88.3219999996 0 -2.27595356459e-10)
(-88.3220000001 0 -7.61687475977e-10)
(-88.322 0 2.00357574231e-10)
(-88.322 0 3.41999767251e-10)
(-88.322 0 -4.99207070036e-11)
(-88.322 0 -9.89977320726e-11)
(-88.322 0 2.41129873244e-10)
(-88.322 0 -1.11926511538e-10)
(-88.322 0 -4.06790598062e-11)
(-88.3219999999 0 -3.5824336925e-11)
(-88.322 0 -7.534011454e-11)
(-88.322 0 1.74190746204e-10)
(-88.3219999998 0 -8.65103414344e-12)
(-88.3220000004 0 2.35906465637e-10)
(-88.3220000005 0 -6.45884682212e-11)
(-88.3219999995 0 -8.96122761923e-11)
(-88.3219999986 0 -2.03843405207e-10)
(-88.3219999989 0 7.59709808707e-11)
(-88.322000002 0 1.43132794927e-10)
(-88.3220000023 0 -2.38437294741e-10)
(-88.3219999996 0 -1.14017323343e-10)
(-88.322 0 -2.12377305753e-11)
(-88.3219999992 0 -1.36158244919e-10)
(-88.3219999998 0 7.34885323116e-11)
(-88.3219999993 0 6.35795932915e-11)
(-88.3219999992 0 -1.06621708641e-09)
(-88.3220000006 0 -9.61574048368e-10)
(-88.322 0 -2.45469497564e-10)
(-88.3219999996 0 1.78220882361e-10)
(-88.3220000001 0 1.26829463022e-10)
(-88.3219999999 0 -1.91927870066e-10)
(-88.3219999999 0 -6.47760740809e-11)
(-88.3219999997 0 9.41056285407e-11)
(-88.3219999999 0 6.80070856321e-11)
(-88.3220000003 0 -1.59030080934e-10)
(-88.3219999999 0 -1.84538229936e-10)
(-88.322 0 -3.11573506013e-11)
(-88.322 0 -9.43219320582e-11)
(-88.322 0 2.46543793305e-11)
(-88.3219999999 0 -3.89412616752e-11)
(-88.3220000002 0 -2.16042462228e-11)
(-88.3220000001 0 -2.2030139109e-11)
(-88.3219999998 0 -3.66334506147e-11)
(-88.322 0 -4.75751060734e-11)
(-88.322 0 -4.76537631897e-11)
(-88.322 0 -3.13671001196e-12)
(-88.322 0 5.76668582243e-11)
(-88.322 0 -1.73874264068e-10)
(-88.3219999998 0 -7.61194322009e-11)
(-88.3219999998 0 5.66635876116e-10)
(-88.322 0 3.88841671059e-10)
(-88.3220000001 0 -4.92187301075e-10)
(-88.3220000001 0 -3.60129199612e-10)
(-88.322 0 -1.01477825904e-10)
(-88.3219999998 0 8.04109072069e-11)
(-88.3220000003 0 -1.95715345525e-10)
(-88.3220000004 0 1.52014232724e-10)
(-88.322 0 -1.57673430035e-10)
(-88.3220000002 0 -4.14127071506e-10)
(-88.3219999996 0 -3.38104635726e-10)
(-88.321999999 0 3.21414528672e-10)
(-88.3220000017 0 -4.54541921292e-10)
(-88.3220000017 0 -4.87397930648e-10)
(-88.321999999 0 -4.28111995083e-10)
(-88.3219999998 0 4.72066603587e-10)
(-88.3219999993 0 3.40420964924e-10)
(-88.321999999 0 -3.88044024162e-10)
(-88.3220000003 0 -2.42475886421e-10)
(-88.322 0 5.63890603095e-10)
(-88.322 0 1.35555945736e-10)
(-88.3220000001 0 -3.9263320747e-10)
(-88.322 0 -6.0833755992e-10)
(-88.322 0 2.40860619929e-10)
(-88.3220000002 0 -2.44261720991e-10)
(-88.3219999998 0 -1.10062192705e-10)
(-88.3219999996 0 -5.28097642713e-10)
(-88.322 0 4.22365020787e-10)
(-88.3220000002 0 -1.51236719993e-10)
(-88.322 0 7.43250040288e-11)
(-88.3220000007 0 3.51783365049e-10)
(-88.3219999998 0 -4.49471660742e-10)
(-88.3219999992 0 -1.04125006035e-09)
(-88.3220000011 0 -1.24891569661e-09)
(-88.3220000008 0 -4.71677261618e-10)
(-88.3219999995 0 1.08668658165e-09)
(-88.3219999998 0 6.20159462724e-10)
(-88.3219999992 0 -7.85027531822e-11)
(-88.3219999994 0 -7.79103099334e-10)
(-88.3220000014 0 8.19123070426e-10)
(-88.3220000012 0 -4.62842440464e-11)
(-88.3219999995 0 -1.96034819506e-10)
(-88.3219999993 0 -4.65839557661e-11)
(-88.322 0 1.10652708881e-10)
(-88.3220000008 0 4.62682538243e-11)
(-88.3220000004 0 3.10234546949e-10)
(-88.3219999995 0 -2.45735290669e-10)
(-88.3219999998 0 2.19603128369e-10)
(-88.3220000006 0 -2.82282295829e-10)
(-88.3220000005 0 2.74933696081e-10)
(-88.3219999997 0 3.10284575002e-10)
(-88.322 0 -2.54177996222e-10)
(-88.3219999998 0 -4.38873990259e-10)
(-88.322 0 -1.27054994812e-10)
(-88.3220000001 0 -4.9194516434e-10)
(-88.322 0 -4.58774316973e-10)
(-88.322 0 -1.22068124818e-10)
(-88.322 0 7.24669898425e-11)
(-88.322 0 5.10412112551e-11)
(-88.3219999999 0 1.21937327498e-10)
(-88.3219999998 0 -3.92477856813e-10)
(-88.3220000004 0 -7.80587718299e-10)
(-88.3220000002 0 3.53538694114e-10)
(-88.3219999985 0 3.40145902843e-10)
(-88.3219999991 0 8.10333146228e-10)
(-88.3220000022 0 -5.17946523955e-10)
(-88.3220000014 0 -5.15538551402e-10)
(-88.3219999992 0 3.31970146876e-10)
(-88.3219999992 0 3.15758164656e-10)
(-88.3220000002 0 3.12778474641e-10)
(-88.3219999999 0 1.01723813572e-10)
(-88.322 0 3.6878680742e-10)
(-88.3220000011 0 1.03957638392e-10)
(-88.3220000003 0 5.65368610105e-11)
(-88.3219999985 0 9.90553072038e-11)
(-88.3220000002 0 -1.52853054087e-10)
(-88.3220000015 0 -4.05350821476e-10)
(-88.3220000004 0 5.78773755386e-10)
(-88.3219999979 0 8.74509326948e-10)
(-88.321999998 0 5.67534771868e-10)
(-88.3220000017 0 7.8667105617e-10)
(-88.3220000011 0 -5.80014635095e-10)
(-88.3219999982 0 -6.01737577455e-11)
(-88.3219999992 0 4.84547787813e-11)
(-88.3220000019 0 -7.92491838875e-11)
(-88.3220000014 0 6.6047287284e-11)
(-88.3219999987 0 -1.19510710772e-10)
(-88.3219999993 0 5.82065594843e-11)
(-88.3220000006 0 -1.28884876005e-10)
(-88.3220000006 0 -3.25228422524e-10)
(-88.3219999988 0 2.6177077071e-10)
(-88.321999999 0 3.71151471527e-10)
(-88.3220000011 0 4.99282625781e-10)
(-88.3219999994 0 -3.58544662194e-10)
(-88.3220000005 0 -3.60864698735e-10)
(-88.3220000012 0 8.1584221713e-10)
(-88.3220000004 0 1.35886031751e-10)
(-88.3220000009 0 1.23569653976e-10)
(-88.3219999978 0 3.65392083459e-10)
(-88.3219999975 0 5.78220691879e-10)
(-88.3220000023 0 7.14472260322e-10)
(-88.3220000019 0 -2.6811600338e-10)
(-88.3219999979 0 -4.66816571424e-10)
(-88.3219999978 0 -1.97842031331e-10)
(-88.3220000012 0 4.67293745615e-10)
(-88.3220000006 0 4.54227555926e-10)
(-88.3219999992 0 3.14500275923e-10)
(-88.322 0 -2.26375540015e-10)
(-88.3219999997 0 -2.33428627263e-10)
(-88.3220000004 0 1.58239484294e-10)
(-88.322 0 -2.65666195247e-11)
(-88.3219999998 0 -8.55322653038e-11)
(-88.3219999998 0 -1.39832017861e-10)
(-88.3219999991 0 1.63303734065e-10)
(-88.322000001 0 1.32125833115e-10)
(-88.3220000015 0 4.80115785311e-11)
(-88.3219999997 0 -4.4246927602e-11)
(-88.322 0 -3.95379257999e-10)
(-88.3220000005 0 -2.11510481905e-11)
(-88.3219999995 0 -1.02868969396e-10)
(-88.321999999 0 -1.28399098802e-10)
(-88.3219999994 0 9.23421315594e-11)
(-88.3219999999 0 -1.36813437818e-10)
(-88.3220000008 0 -1.21472959259e-11)
(-88.3220000018 0 -5.69923238142e-12)
(-88.3219999987 0 -7.20992618739e-11)
(-88.3219999978 0 2.04420392078e-10)
(-88.3219999989 0 -5.16929225451e-12)
(-88.3220000016 0 -3.88222985043e-10)
(-88.3220000027 0 -2.46795376145e-10)
(-88.3219999985 0 3.4226200409e-10)
(-88.3219999984 0 5.01974648559e-10)
(-88.322 0 9.84981442636e-11)
(-88.3220000001 0 -4.70244673987e-11)
(-88.3220000001 0 1.99653052593e-10)
(-88.3220000004 0 -1.0664230774e-10)
(-88.3220000006 0 1.70521150892e-10)
(-88.3220000001 0 4.20790897334e-10)
(-88.322 0 3.34190228462e-10)
(-88.3219999998 0 -3.08895940272e-10)
(-88.3220000004 0 5.60318434499e-10)
(-88.3219999993 0 2.62482237783e-10)
(-88.3219999988 0 6.77443615127e-10)
(-88.3220000001 0 -5.26100339226e-10)
(-88.3220000016 0 -3.44454051483e-10)
(-88.3220000007 0 5.39200492411e-10)
(-88.3219999991 0 1.92384035009e-10)
(-88.322 0 -5.80109058487e-10)
(-88.3220000001 0 -1.29670614238e-10)
(-88.3220000002 0 3.73431544039e-10)
(-88.322 0 6.37605364065e-10)
(-88.322 0 -4.30225308208e-10)
(-88.3220000009 0 2.43854863425e-10)
(-88.3219999991 0 8.04229631975e-11)
(-88.3219999982 0 5.4269067659e-10)
(-88.3219999996 0 -4.51259880808e-10)
(-88.3220000017 0 2.9071218141e-11)
(-88.3220000018 0 1.75515062392e-10)
(-88.3219999983 0 -6.36090814228e-10)
(-88.3219999989 0 1.19942776949e-10)
(-88.3220000005 0 8.33927955912e-10)
(-88.3220000007 0 7.97461224984e-10)
(-88.322 0 5.11706172392e-10)
(-88.3219999989 0 -4.47110306615e-10)
(-88.3220000014 0 -6.32117690932e-10)
(-88.3220000014 0 5.33835174583e-10)
(-88.3219999994 0 5.41090884217e-10)
(-88.3219999996 0 -4.4405393275e-10)
(-88.322 0 -5.46712607535e-10)
(-88.3219999999 0 1.43824405132e-10)
(-88.322 0 -1.79667889261e-10)
(-88.322 0 -4.61915826028e-11)
(-88.322 0 1.43877307035e-10)
(-88.322 0 -2.57513738896e-10)
(-88.322 0 1.80904285808e-10)
(-88.322 0 -1.44804729569e-10)
(-88.322 0 1.49724478024e-10)
(-88.322 0 -2.52762870926e-10)
(-88.322 0 -1.62730729949e-10)
(-88.3220000002 0 -2.39788768439e-10)
(-88.3220000006 0 1.70281961306e-11)
(-88.3219999999 0 3.97625283552e-10)
(-88.3219999995 0 1.88737955071e-10)
(-88.3220000002 0 -1.5250702612e-10)
(-88.3219999997 0 -3.14516464631e-10)
(-88.322 0 1.69511438893e-10)
(-88.3220000002 0 2.19805485219e-10)
(-88.3219999997 0 -2.79732661558e-10)
(-88.322 0 4.47473665563e-10)
(-88.322 0 7.78046392616e-10)
(-88.3220000001 0 -3.29154090796e-10)
(-88.3219999997 0 -3.49318174172e-10)
(-88.3219999996 0 -8.39761410955e-10)
(-88.3220000006 0 4.23287340737e-10)
(-88.322 0 4.69483339386e-10)
(-88.3219999998 0 -3.60057718462e-10)
(-88.3220000002 0 -3.23806695618e-10)
(-88.3219999999 0 -3.71355400799e-10)
(-88.322 0 -2.42787016528e-10)
(-88.322 0 -2.44932778873e-10)
(-88.322 0 -1.23586075626e-10)
(-88.322 0 1.31935028967e-10)
(-88.322 0 1.38154833941e-10)
(-88.3219999997 0 -1.59678804802e-10)
(-88.3220000004 0 4.0056849717e-10)
(-88.3220000003 0 -3.20722648225e-10)
(-88.3219999995 0 -7.88914996298e-10)
(-88.322 0 -6.14491115051e-10)
(-88.3219999997 0 -1.66954131739e-10)
(-88.3220000002 0 -2.8398129125e-11)
(-88.3220000005 0 -4.96568971879e-10)
(-88.3219999998 0 2.3954684464e-10)
(-88.322 0 3.90612121943e-10)
(-88.322 0 -3.88967000047e-10)
(-88.3220000004 0 8.23060393303e-11)
(-88.3220000002 0 -5.45793675194e-10)
(-88.3219999996 0 -4.76532208543e-10)
(-88.322 0 1.69909408992e-10)
(-88.3219999998 0 -8.66980062155e-10)
(-88.322 0 -5.33581208223e-10)
(-88.3219999999 0 -5.31295660416e-10)
(-88.3220000008 0 2.34502594479e-10)
(-88.3220000007 0 2.97511497264e-10)
(-88.3219999984 0 -6.28110686096e-10)