/*--------------------------------*- C++ -*----------------------------------*\
  =========                 |
  \\      /  F ield         | OpenFOAM: The Open Source CFD Toolbox
   \\    /   O peration     | Website:  https://openfoam.org
    \\  /    A nd           | Version:  6
     \\/     M anipulation  |
\*---------------------------------------------------------------------------*/
FoamFile
{
    version     2.0;
    format      ascii;
    class       volScalarField;
    location    "4e-08";
    object      C6H14;
}
// * * * * * * * * * * * * * * * * * * * * * * * * * * * * * * * * * * * * * //

dimensions      [0 0 0 0 0 0 0];

internalField   nonuniform List<scalar> 
12288
(
0.001
0.001
0.001
0.001
0.001
0.001
0.001
0.001
0.001
0.001
0.001
0.001
0.001
0.001
0.001
0.001
0.001
0.001
0.001
0.001
0.001
0.001
0.001
0.001
0.001
0.001
0.001
0.001
0.001
0.001
0.001
0.001
0.001
0.001
0.001
0.001
0.001
0.001
0.001
0.001
0.001
0.001
0.001
0.001
0.001
0.001
0.001
0.001
0.001
0.001
0.001
0.001
0.001
0.001
0.001
0.001
0.001
0.001
0.001
0.001
0.001
0.001
0.001
0.001
0.001
0.001
0.001
0.001
0.001
0.001
0.001
0.001
0.001
0.001
0.001
0.001
0.001
0.001
0.001
0.001
0.001
0.001
0.001
0.001
0.001
0.001
0.001
0.001
0.001
0.001
0.001
0.001
0.001
0.001
0.001
0.001
0.001
0.001
0.001
0.001
0.001
0.001
0.001
0.001
0.001
0.001
0.001
0.001
0.001
0.001
0.001
0.001
0.001
0.001
0.001
0.001
0.001
0.001
0.001
0.001
0.001
0.001
0.001
0.001
0.001
0.001
0.001
0.001
0.001
0.001
0.001
0.001
0.001
0.001
0.001
0.001
0.001
0.001
0.001
0.001
0.001
0.001
0.001
0.001
0.001
0.001
0.001
0.001
0.001
0.001
0.001
0.001
0.001
0.001
0.001
0.001
0.001
0.001
0.001
0.001
0.001
0.001
0.001
0.001
0.001
0.001
0.001
0.001
0.001
0.001
0.001
0.001
0.001
0.001
0.001
0.001
0.001
0.001
0.001
0.001
0.001
0.001
0.001
0.001
0.001
0.001
0.001
0.001
0.001
0.001
0.001
0.001
0.001
0.001
0.001
0.001
0.001
0.001
0.001
0.001
0.001
0.001
0.001
0.001
0.001
0.001
0.001
0.001
0.001
0.001
0.001
0.001
0.001
0.001
0.001
0.001
0.001
0.001
0.001
0.001
0.001
0.001
0.001
0.001
0.001
0.001
0.001
0.001
0.001
0.001
0.001
0.001
0.001
0.001
0.001
0.001
0.001
0.001
0.001
0.001
0.001
0.001
0.001
0.001
0.001
0.001
0.001
0.001
0.001
0.001
0.001
0.001
0.001
0.001
0.001
0.001
0.001
0.001
0.001
0.001
0.001
0.001
0.001
0.001
0.001
0.001
0.001
0.001
0.001
0.001
0.001
0.001
0.001
0.001
0.001
0.001
0.001
0.001
0.001
0.001
0.001
0.001
0.001
0.001
0.001
0.001
0.001
0.001
0.001
0.001
0.001
0.001
0.001
0.001
0.001
0.001
0.001
0.001
0.001
0.001
0.001
0.001
0.001
0.001
0.001
0.001
0.001
0.001
0.001
0.001
0.001
0.001
0.001
0.001
0.001
0.001
0.001
0.001
0.001
0.001
0.000999999999998
0.000999999999998
0.000999999999998
0.000999999999998
0.000999999999998
0.000999999999998
0.000999999999998
0.000999999999998
0.000999999999998
0.000999999999998
0.000999999999998
0.000999999999998
0.000999999999998
0.000999999999998
0.000999999999998
0.000999999999998
0.000999999999998
0.000999999999998
0.000999999999998
0.000999999999998
0.000999999999998
0.000999999999998
0.000999999999998
0.000999999999998
0.000999999999998
0.000999999999998
0.000999999999998
0.000999999999998
0.000999999999998
0.000999999999998
0.000999999999999
0.000999999999999
0.000999999999999
0.000999999999999
0.000999999999998
0.000999999999998
0.000999999999998
0.000999999999998
0.000999999999998
0.000999999999998
0.000999999999998
0.000999999999998
0.000999999999998
0.000999999999998
0.000999999999998
0.000999999999998
0.000999999999998
0.000999999999998
0.000999999999998
0.000999999999998
0.000999999999998
0.000999999999998
0.000999999999998
0.000999999999998
0.000999999999998
0.000999999999998
0.000999999999998
0.000999999999998
0.000999999999998
0.000999999999999
0.000999999999999
0.000999999999998
0.000999999999998
0.000999999999998
0.000999999999998
0.000999999999998
0.000999999999998
0.000999999999998
0.000999999999998
0.000999999999998
0.000999999999998
0.000999999999998
0.000999999999998
0.000999999999998
0.000999999999998
0.000999999999998
0.000999999999998
0.000999999999998
0.000999999999998
0.000999999999998
0.000999999999998
0.000999999999998
0.000999999999998
0.000999999999998
0.000999999999998
0.000999999999998
0.000999999999997
0.000999999999997
0.000999999999997
0.000999999999997
0.000999999999997
0.000999999999997
0.000999999999997
0.000999999999997
0.000999999999997
0.000999999999997
0.000999999999998
0.000999999999998
0.000999999999998
0.000999999999998
0.000999999999998
0.000999999999998
0.000999999999998
0.000999999999998
0.000999999999998
0.000999999999998
0.000999999999998
0.000999999999998
0.000999999999998
0.000999999999998
0.000999999999998
0.000999999999998
0.000999999999998
0.000999999999998
0.000999999999998
0.000999999999998
0.000999999999998
0.000999999999998
0.000999999999998
0.000999999999998
0.000999999999998
0.000999999999998
0.000999999999998
0.000999999999998
0.000999999999998
0.000999999999998
0.000999999999998
0.000999999999998
0.001
0.001
0.001
0.001
0.001
0.001
0.001
0.001
0.001
0.001
0.001
0.001
0.001
0.001
0.001
0.001
0.001
0.001
0.001
0.001
0.001
0.001
0.001
0.001
0.001
0.001
0.001
0.000999999999999
0.000999999999999
0.001
0.001
0.001
0.001
0.001
0.001
0.001
0.001
0.001
0.001
0.001
0.001
0.001
0.001
0.001
0.001
0.001
0.001
0.001
0.001
0.001
0.001
0.001
0.001
0.001
0.001
0.001
0.001
0.001
0.001
0.001
0.001
0.001
0.001
0.001
0.00100000000001
0.00100000000001
0.00100000000001
0.00100000000001
0.00100000000001
0.00100000000001
0.00100000000001
0.00100000000001
0.00100000000001
0.00100000000001
0.00100000000001
0.00100000000001
0.00100000000001
0.00100000000001
0.00100000000001
0.00100000000001
0.00100000000001
0.00100000000001
0.00100000000001
0.00100000000001
0.00100000000001
0.00100000000001
0.00100000000001
0.00100000000001
0.00100000000001
0.00100000000001
0.00100000000001
0.00100000000001
0.00100000000001
0.00100000000001
0.00100000000001
0.00100000000001
0.00100000000001
0.00100000000001
0.00100000000001
0.00100000000001
0.00100000000001
0.00100000000001
0.00100000000001
0.00100000000001
0.00100000000001
0.00100000000001
0.00100000000001
0.00100000000001
0.00100000000001
0.00100000000001
0.00100000000001
0.00100000000001
0.00100000000001
0.00100000000001
0.00100000000001
0.00100000000001
0.00100000000001
0.00100000000001
0.00100000000001
0.00100000000001
0.00100000000001
0.00100000000001
0.00100000000001
0.00100000000001
0.00100000000001
0.00100000000001
0.00100000000001
0.00100000000001
0.00100000000001
0.00100000000001
0.00100000000001
0.00100000000001
0.00100000000002
0.00100000000002
0.00100000000002
0.00100000000002
0.00100000000002
0.00100000000002
0.00100000000002
0.00100000000002
0.00100000000002
0.00100000000002
0.00100000000002
0.00100000000002
0.00100000000002
0.00100000000002
0.00100000000001
0.00100000000001
0.00100000000002
0.00100000000002
0.00100000000002
0.00100000000002
0.00100000000002
0.00100000000002
0.00100000000002
0.00100000000002
0.00100000000002
0.00100000000001
0.00100000000001
0.00100000000001
0.00100000000001
0.00100000000001
0.00100000000001
0.00100000000001
0.00100000000001
0.00100000000001
0.00100000000001
0.00100000000001
0.00100000000001
0.00100000000001
0.00100000000001
0.00100000000001
0.00100000000001
0.00100000000001
0.00100000000001
0.00100000000001
0.00100000000001
0.00100000000001
0.00100000000001
0.00100000000001
0.00100000000001
0.00100000000001
0.00100000000001
0.00100000000001
0.00100000000001
0.00100000000001
0.00100000000001
0.00100000000001
0.00100000000001
0.00100000000001
0.00100000000001
0.00100000000001
0.00100000000001
0.00100000000001
0.00100000000001
0.00100000000001
0.00100000000002
0.00100000000002
0.00100000000002
0.00100000000002
0.00100000000002
0.00100000000002
0.00100000000002
0.00100000000002
0.00100000000002
0.00100000000002
0.00100000000002
0.00100000000002
0.00100000000002
0.00100000000002
0.00100000000002
0.00100000000002
0.00100000000002
0.00100000000002
0.00100000000002
0.00100000000002
0.00100000000002
0.00100000000002
0.00100000000002
0.00100000000002
0.00100000000002
0.00100000000002
0.00100000000002
0.00100000000002
0.00100000000002
0.00100000000002
0.00100000000002
0.00100000000002
0.00100000000002
0.00100000000002
0.00100000000002
0.00100000000002
0.00100000000002
0.00100000000002
0.00100000000002
0.00100000000002
0.00100000000002
0.00100000000002
0.00100000000002
0.00100000000002
0.00100000000002
0.00100000000002
0.00100000000002
0.00100000000002
0.00100000000002
0.00100000000002
0.00100000000002
0.00100000000002
0.00100000000002
0.00100000000002
0.00100000000002
0.00100000000002
0.00100000000002
0.00100000000002
0.00100000000002
0.00100000000002
0.00100000000001
0.00100000000001
0.00100000000001
0.00100000000001
0.00100000000001
0.00100000000001
0.00100000000001
0.00100000000001
0.00100000000001
0.00100000000001
0.00100000000001
0.00100000000001
0.00100000000001
0.00100000000001
0.00100000000001
0.00100000000001
0.00100000000001
0.00100000000001
0.00100000000001
0.00100000000001
0.00100000000001
0.00100000000001
0.00100000000001
0.00100000000001
0.00100000000001
0.00100000000001
0.00100000000001
0.00100000000001
0.00100000000001
0.00100000000001
0.00100000000001
0.00100000000001
0.00100000000001
0.00100000000001
0.00100000000001
0.00100000000001
0.00100000000001
0.00100000000001
0.00100000000001
0.00100000000001
0.00100000000001
0.00100000000001
0.00100000000001
0.00100000000001
0.00100000000001
0.00100000000001
0.00100000000001
0.00100000000001
0.00100000000001
0.00100000000001
0.00100000000001
0.00100000000001
0.00100000000001
0.00100000000001
0.00100000000001
0.00100000000001
0.00100000000001
0.00100000000001
0.00100000000001
0.00100000000001
0.00100000000001
0.00100000000001
0.00100000000001
0.00100000000001
0.000999999999975
0.000999999999974
0.000999999999974
0.000999999999973
0.000999999999972
0.000999999999971
0.000999999999971
0.00099999999997
0.00099999999997
0.00099999999997
0.000999999999971
0.000999999999972
0.000999999999973
0.000999999999974
0.000999999999975
0.000999999999976
0.000999999999977
0.000999999999978
0.000999999999978
0.000999999999978
0.000999999999978
0.000999999999978
0.000999999999977
0.000999999999977
0.000999999999978
0.000999999999979
0.00099999999998
0.000999999999981
0.000999999999982
0.000999999999983
0.000999999999982
0.000999999999981
0.00099999999998
0.00099999999998
0.00099999999998
0.000999999999979
0.000999999999979
0.00099999999998
0.00099999999998
0.000999999999979
0.000999999999978
0.000999999999977
0.000999999999975
0.000999999999974
0.000999999999973
0.000999999999973
0.000999999999972
0.000999999999972
0.000999999999972
0.000999999999971
0.00099999999997
0.00099999999997
0.00099999999997
0.00099999999997
0.000999999999971
0.000999999999972
0.000999999999973
0.000999999999974
0.000999999999975
0.000999999999976
0.000999999999976
0.000999999999976
0.000999999999975
0.000999999999975
0.000999999999895
0.000999999999894
0.000999999999892
0.00099999999989
0.000999999999888
0.000999999999886
0.000999999999885
0.000999999999885
0.000999999999886
0.000999999999888
0.00099999999989
0.000999999999892
0.000999999999894
0.000999999999894
0.000999999999895
0.000999999999895
0.000999999999896
0.000999999999897
0.000999999999898
0.000999999999899
0.000999999999899
0.0009999999999
0.0009999999999
0.0009999999999
0.000999999999901
0.000999999999903
0.000999999999904
0.000999999999906
0.000999999999909
0.00099999999991
0.000999999999911
0.000999999999912
0.000999999999912
0.000999999999912
0.000999999999912
0.000999999999912
0.000999999999913
0.000999999999914
0.000999999999914
0.000999999999913
0.000999999999912
0.00099999999991
0.000999999999909
0.000999999999908
0.000999999999908
0.000999999999908
0.000999999999908
0.000999999999907
0.000999999999906
0.000999999999905
0.000999999999903
0.000999999999902
0.000999999999902
0.000999999999903
0.000999999999903
0.000999999999904
0.000999999999905
0.000999999999905
0.000999999999905
0.000999999999905
0.000999999999903
0.0009999999999
0.000999999999898
0.000999999999897
0.000999999999837
0.000999999999834
0.00099999999983
0.000999999999827
0.000999999999823
0.00099999999982
0.000999999999819
0.00099999999982
0.000999999999822
0.000999999999826
0.000999999999829
0.000999999999832
0.000999999999833
0.000999999999833
0.000999999999831
0.00099999999983
0.000999999999829
0.000999999999829
0.00099999999983
0.000999999999832
0.000999999999835
0.000999999999836
0.000999999999838
0.00099999999984
0.000999999999841
0.000999999999843
0.000999999999845
0.000999999999848
0.000999999999851
0.000999999999854
0.000999999999857
0.000999999999859
0.000999999999861
0.000999999999862
0.000999999999862
0.000999999999863
0.000999999999864
0.000999999999865
0.000999999999866
0.000999999999866
0.000999999999865
0.000999999999865
0.000999999999866
0.000999999999868
0.000999999999869
0.00099999999987
0.00099999999987
0.000999999999869
0.000999999999867
0.000999999999865
0.000999999999863
0.00099999999986
0.000999999999859
0.000999999999858
0.000999999999858
0.000999999999857
0.000999999999858
0.000999999999857
0.000999999999856
0.000999999999855
0.000999999999851
0.000999999999848
0.000999999999844
0.00099999999984
0.000999999999868
0.000999999999863
0.000999999999856
0.00099999999985
0.000999999999846
0.000999999999842
0.000999999999842
0.000999999999843
0.000999999999845
0.000999999999848
0.000999999999851
0.000999999999852
0.000999999999852
0.00099999999985
0.000999999999847
0.000999999999843
0.000999999999839
0.000999999999838
0.000999999999839
0.000999999999841
0.000999999999844
0.000999999999847
0.000999999999851
0.000999999999853
0.000999999999854
0.000999999999855
0.000999999999856
0.000999999999859
0.000999999999862
0.000999999999867
0.000999999999872
0.000999999999877
0.00099999999988
0.000999999999883
0.000999999999884
0.000999999999884
0.000999999999885
0.000999999999885
0.000999999999887
0.00099999999989
0.000999999999894
0.000999999999899
0.000999999999904
0.000999999999908
0.000999999999911
0.000999999999914
0.000999999999915
0.000999999999914
0.000999999999914
0.000999999999912
0.00099999999991
0.000999999999907
0.000999999999903
0.000999999999899
0.000999999999896
0.000999999999893
0.000999999999892
0.000999999999891
0.000999999999889
0.000999999999886
0.000999999999885
0.000999999999881
0.000999999999877
0.000999999999872
0.00100000000008
0.00100000000007
0.00100000000006
0.00100000000005
0.00100000000005
0.00100000000005
0.00100000000005
0.00100000000005
0.00100000000004
0.00100000000004
0.00100000000004
0.00100000000004
0.00100000000003
0.00100000000003
0.00100000000002
0.00100000000002
0.00100000000001
0.00100000000001
0.00100000000001
0.00100000000001
0.00100000000001
0.00100000000002
0.00100000000002
0.00100000000002
0.00100000000002
0.00100000000002
0.00100000000001
0.00100000000001
0.00100000000002
0.00100000000002
0.00100000000003
0.00100000000004
0.00100000000004
0.00100000000005
0.00100000000005
0.00100000000005
0.00100000000005
0.00100000000005
0.00100000000005
0.00100000000006
0.00100000000007
0.00100000000008
0.00100000000009
0.0010000000001
0.0010000000001
0.00100000000011
0.00100000000012
0.00100000000012
0.00100000000012
0.00100000000013
0.00100000000013
0.00100000000012
0.00100000000012
0.00100000000011
0.00100000000011
0.0010000000001
0.0010000000001
0.00100000000009
0.00100000000009
0.00100000000009
0.00100000000009
0.00100000000008
0.00100000000008
0.00100000000008
0.00100000000054
0.00100000000054
0.00100000000053
0.00100000000053
0.00100000000053
0.00100000000053
0.00100000000053
0.00100000000053
0.00100000000052
0.0010000000005
0.00100000000049
0.00100000000047
0.00100000000047
0.00100000000046
0.00100000000046
0.00100000000046
0.00100000000046
0.00100000000046
0.00100000000046
0.00100000000045
0.00100000000045
0.00100000000045
0.00100000000045
0.00100000000044
0.00100000000043
0.00100000000043
0.00100000000042
0.00100000000041
0.00100000000041
0.00100000000041
0.00100000000041
0.00100000000042
0.00100000000043
0.00100000000043
0.00100000000044
0.00100000000044
0.00100000000043
0.00100000000043
0.00100000000043
0.00100000000043
0.00100000000045
0.00100000000046
0.00100000000047
0.00100000000048
0.00100000000049
0.0010000000005
0.00100000000051
0.00100000000052
0.00100000000054
0.00100000000055
0.00100000000055
0.00100000000056
0.00100000000056
0.00100000000055
0.00100000000054
0.00100000000054
0.00100000000053
0.00100000000053
0.00100000000052
0.00100000000052
0.00100000000053
0.00100000000053
0.00100000000054
0.00100000000054
0.00100000000114
0.00100000000115
0.00100000000117
0.00100000000118
0.00100000000119
0.0010000000012
0.0010000000012
0.00100000000119
0.00100000000116
0.00100000000113
0.0010000000011
0.00100000000107
0.00100000000106
0.00100000000107
0.00100000000108
0.0010000000011
0.00100000000112
0.00100000000112
0.00100000000111
0.0010000000011
0.00100000000108
0.00100000000107
0.00100000000106
0.00100000000104
0.00100000000103
0.00100000000102
0.001000000001
0.00100000000099
0.00100000000098
0.00100000000097
0.00100000000096
0.00100000000096
0.00100000000097
0.00100000000097
0.00100000000097
0.00100000000096
0.00100000000095
0.00100000000094
0.00100000000093
0.00100000000093
0.00100000000093
0.00100000000094
0.00100000000094
0.00100000000096
0.00100000000097
0.00100000000098
0.00100000000099
0.001000000001
0.00100000000102
0.00100000000104
0.00100000000106
0.00100000000107
0.00100000000108
0.00100000000108
0.00100000000109
0.00100000000109
0.00100000000109
0.00100000000108
0.00100000000109
0.00100000000109
0.0010000000011
0.00100000000111
0.00100000000113
0.00100000000114
0.00100000000144
0.00100000000146
0.0010000000015
0.00100000000154
0.00100000000157
0.00100000000159
0.00100000000159
0.00100000000157
0.00100000000154
0.00100000000149
0.00100000000144
0.00100000000141
0.00100000000141
0.00100000000143
0.00100000000148
0.00100000000153
0.00100000000157
0.00100000000158
0.00100000000156
0.00100000000154
0.0010000000015
0.00100000000147
0.00100000000144
0.00100000000143
0.00100000000142
0.0010000000014
0.00100000000139
0.00100000000137
0.00100000000135
0.00100000000132
0.0010000000013
0.00100000000127
0.00100000000127
0.00100000000126
0.00100000000124
0.00100000000123
0.00100000000121
0.0010000000012
0.00100000000118
0.00100000000115
0.00100000000114
0.00100000000113
0.00100000000112
0.00100000000113
0.00100000000113
0.00100000000114
0.00100000000115
0.00100000000116
0.00100000000117
0.00100000000119
0.00100000000121
0.00100000000124
0.00100000000127
0.00100000000128
0.0010000000013
0.00100000000132
0.00100000000133
0.00100000000134
0.00100000000136
0.00100000000137
0.00100000000138
0.00100000000139
0.00100000000141
0.00100000000143
0.0010000000006
0.00100000000063
0.00100000000068
0.00100000000074
0.00100000000079
0.00100000000082
0.00100000000083
0.00100000000082
0.00100000000078
0.00100000000074
0.00100000000069
0.00100000000068
0.0010000000007
0.00100000000075
0.00100000000082
0.00100000000089
0.00100000000095
0.00100000000097
0.00100000000096
0.00100000000092
0.00100000000086
0.00100000000081
0.00100000000078
0.00100000000077
0.00100000000077
0.00100000000077
0.00100000000076
0.00100000000074
0.00100000000072
0.00100000000068
0.00100000000063
0.00100000000059
0.00100000000057
0.00100000000054
0.00100000000052
0.0010000000005
0.00100000000049
0.00100000000048
0.00100000000045
0.00100000000043
0.00100000000039
0.00100000000037
0.00100000000034
0.00100000000032
0.00100000000031
0.0010000000003
0.0010000000003
0.0010000000003
0.0010000000003
0.00100000000031
0.00100000000032
0.00100000000035
0.00100000000038
0.0010000000004
0.00100000000043
0.00100000000046
0.00100000000049
0.00100000000052
0.00100000000054
0.00100000000056
0.00100000000057
0.00100000000057
0.00100000000058
0.00100000000059
0.000999999997945
0.000999999997955
0.000999999997987
0.000999999998039
0.000999999998099
0.000999999998153
0.00099999999819
0.000999999998207
0.000999999998205
0.000999999998193
0.000999999998186
0.000999999998198
0.000999999998233
0.000999999998288
0.000999999998352
0.000999999998416
0.000999999998465
0.000999999998483
0.00099999999848
0.000999999998451
0.0009999999984
0.000999999998355
0.000999999998337
0.000999999998338
0.000999999998346
0.000999999998359
0.000999999998367
0.00099999999836
0.000999999998337
0.000999999998297
0.000999999998246
0.000999999998209
0.000999999998186
0.000999999998164
0.000999999998147
0.00099999999815
0.000999999998169
0.000999999998191
0.000999999998202
0.000999999998198
0.00099999999818
0.000999999998147
0.000999999998091
0.000999999998038
0.000999999997989
0.00099999999794
0.000999999997905
0.00099999999789
0.000999999997887
0.000999999997884
0.000999999997874
0.000999999997861
0.000999999997854
0.000999999997851
0.000999999997851
0.000999999997862
0.000999999997889
0.000999999997926
0.000999999997965
0.000999999997993
0.000999999998
0.000999999997986
0.000999999997965
0.00099999999795
0.000999999993847
0.000999999993827
0.000999999993816
0.000999999993826
0.000999999993876
0.00099999999395
0.000999999994032
0.000999999994109
0.00099999999418
0.000999999994241
0.000999999994294
0.000999999994338
0.000999999994368
0.00099999999438
0.000999999994379
0.000999999994373
0.000999999994372
0.000999999994374
0.000999999994378
0.000999999994381
0.000999999994373
0.000999999994362
0.000999999994359
0.000999999994363
0.000999999994375
0.000999999994396
0.000999999994415
0.000999999994419
0.000999999994414
0.000999999994408
0.000999999994406
0.000999999994404
0.000999999994406
0.000999999994415
0.000999999994444
0.000999999994503
0.000999999994589
0.000999999994685
0.000999999994774
0.00099999999484
0.000999999994874
0.000999999994853
0.000999999994773
0.000999999994705
0.000999999994612
0.000999999994502
0.000999999994434
0.000999999994414
0.00099999999442
0.000999999994416
0.000999999994375
0.000999999994297
0.000999999994201
0.000999999994101
0.00099999999404
0.000999999993987
0.000999999993958
0.000999999993972
0.000999999994001
0.00099999999403
0.000999999994038
0.000999999994011
0.000999999993956
0.000999999993895
0.000999999990255
0.000999999990201
0.000999999990136
0.000999999990088
0.000999999990106
0.000999999990192
0.00099999999032
0.000999999990469
0.000999999990633
0.000999999990794
0.000999999990921
0.000999999990992
0.00099999999099
0.000999999990922
0.000999999990806
0.000999999990678
0.000999999990583
0.000999999990548
0.000999999990545
0.000999999990573
0.00099999999062
0.000999999990648
0.000999999990654
0.000999999990654
0.000999999990657
0.000999999990668
0.000999999990686
0.00099999999071
0.000999999990749
0.000999999990823
0.000999999990907
0.00099999999096
0.000999999991008
0.000999999991072
0.00099999999116
0.000999999991286
0.00099999999145
0.000999999991635
0.000999999991819
0.000999999991977
0.000999999992084
0.000999999992112
0.00099999999206
0.000999999991996
0.000999999991895
0.000999999991773
0.000999999991698
0.000999999991682
0.000999999991699
0.000999999991701
0.000999999991642
0.000999999991504
0.000999999991301
0.000999999991083
0.000999999990961
0.00099999999082
0.000999999990679
0.000999999990615
0.000999999990589
0.00099999999058
0.00099999999057
0.000999999990531
0.000999999990449
0.000999999990339
0.000999999989971
0.000999999989891
0.000999999989796
0.000999999989702
0.000999999989673
0.000999999989749
0.0009999999899
0.000999999990105
0.000999999990342
0.000999999990601
0.000999999990819
0.000999999990922
0.000999999990894
0.000999999990755
0.000999999990541
0.00099999999029
0.000999999990079
0.000999999989992
0.000999999989946
0.000999999989941
0.000999999989995
0.000999999990032
0.000999999990034
0.000999999990025
0.000999999990012
0.000999999990007
0.000999999990034
0.000999999990105
0.000999999990226
0.000999999990408
0.000999999990565
0.000999999990663
0.00099999999075
0.000999999990843
0.000999999990949
0.000999999991089
0.000999999991271
0.000999999991487
0.000999999991712
0.000999999991915
0.000999999992072
0.000999999992168
0.000999999992198
0.000999999992179
0.000999999992148
0.000999999992108
0.00099999999207
0.000999999992048
0.00099999999204
0.000999999992026
0.000999999991966
0.000999999991828
0.000999999991601
0.000999999991346
0.000999999991203
0.000999999991005
0.000999999990762
0.000999999990589
0.000999999990458
0.00099999999036
0.000999999990299
0.000999999990244
0.000999999990155
0.00099999999006
0.00099999999503
0.000999999994996
0.000999999994925
0.000999999994819
0.000999999994753
0.000999999994762
0.000999999994884
0.000999999995126
0.000999999995402
0.000999999995693
0.000999999996002
0.00099999999619
0.000999999996196
0.000999999996074
0.000999999995856
0.000999999995544
0.000999999995266
0.000999999995109
0.000999999994959
0.000999999994831
0.000999999994786
0.00099999999477
0.000999999994757
0.000999999994739
0.000999999994716
0.000999999994719
0.000999999994791
0.000999999994949
0.000999999995177
0.00099999999544
0.000999999995625
0.000999999995723
0.00099999999579
0.000999999995829
0.000999999995851
0.000999999995881
0.000999999995945
0.000999999996051
0.000999999996183
0.000999999996309
0.00099999999642
0.00099999999654
0.000999999996681
0.000999999996802
0.000999999996859
0.000999999996947
0.000999999997013
0.000999999996972
0.000999999996884
0.000999999996809
0.000999999996762
0.000999999996722
0.000999999996655
0.000999999996546
0.000999999996461
0.000999999996298
0.000999999996056
0.000999999995804
0.000999999995549
0.000999999995327
0.000999999995188
0.000999999995122
0.000999999995089
0.000999999995058
0.00100000000521
0.00100000000531
0.00100000000533
0.00100000000525
0.00100000000514
0.00100000000509
0.00100000000514
0.00100000000534
0.00100000000567
0.00100000000593
0.00100000000624
0.00100000000655
0.00100000000669
0.00100000000672
0.00100000000663
0.00100000000638
0.00100000000614
0.00100000000592
0.00100000000561
0.00100000000527
0.00100000000501
0.0010000000049
0.00100000000485
0.00100000000482
0.00100000000481
0.00100000000486
0.00100000000502
0.00100000000528
0.0010000000056
0.00100000000587
0.00100000000602
0.00100000000606
0.00100000000603
0.00100000000592
0.00100000000573
0.0010000000055
0.00100000000529
0.00100000000512
0.001000000005
0.0010000000049
0.00100000000483
0.00100000000488
0.00100000000511
0.0010000000054
0.00100000000556
0.00100000000577
0.00100000000595
0.00100000000589
0.0010000000057
0.00100000000555
0.00100000000553
0.00100000000569
0.00100000000598
0.00100000000622
0.0010000000063
0.0010000000063
0.0010000000062
0.00100000000596
0.00100000000561
0.00100000000528
0.00100000000506
0.001000000005
0.00100000000501
0.00100000000509
0.00100000001854
0.00100000001878
0.00100000001891
0.00100000001887
0.00100000001872
0.00100000001864
0.00100000001858
0.00100000001862
0.00100000001888
0.0010000000192
0.00100000001945
0.00100000001976
0.00100000002012
0.00100000002044
0.00100000002066
0.00100000002065
0.00100000002055
0.00100000002036
0.00100000001995
0.00100000001938
0.00100000001891
0.00100000001867
0.00100000001856
0.00100000001853
0.0010000000186
0.00100000001875
0.00100000001904
0.0010000000194
0.00100000001977
0.00100000002001
0.00100000002006
0.00100000002001
0.00100000001986
0.00100000001958
0.00100000001912
0.00100000001855
0.00100000001797
0.00100000001742
0.00100000001691
0.00100000001644
0.00100000001606
0.00100000001591
0.00100000001613
0.00100000001654
0.00100000001677
0.00100000001706
0.00100000001731
0.00100000001724
0.00100000001697
0.00100000001672
0.00100000001672
0.00100000001707
0.00100000001766
0.0010000000183
0.00100000001865
0.00100000001891
0.00100000001904
0.00100000001889
0.00100000001857
0.00100000001822
0.001000000018
0.00100000001794
0.00100000001801
0.00100000001824
0.00100000003494
0.00100000003524
0.00100000003537
0.0010000000353
0.0010000000351
0.00100000003491
0.00100000003463
0.00100000003436
0.00100000003435
0.00100000003453
0.00100000003485
0.00100000003515
0.00100000003565
0.00100000003636
0.00100000003707
0.00100000003758
0.00100000003777
0.00100000003781
0.00100000003756
0.00100000003692
0.00100000003639
0.00100000003608
0.0010000000359
0.00100000003589
0.00100000003605
0.00100000003634
0.00100000003671
0.0010000000371
0.00100000003742
0.00100000003754
0.00100000003752
0.00100000003744
0.00100000003726
0.00100000003686
0.00100000003632
0.00100000003553
0.00100000003459
0.00100000003365
0.00100000003272
0.00100000003183
0.00100000003104
0.00100000003062
0.0010000000307
0.00100000003109
0.00100000003134
0.00100000003167
0.00100000003195
0.00100000003189
0.00100000003156
0.00100000003122
0.00100000003112
0.00100000003141
0.00100000003195
0.00100000003266
0.00100000003318
0.00100000003368
0.00100000003402
0.00100000003409
0.00100000003402
0.0010000000339
0.00100000003383
0.00100000003389
0.00100000003408
0.00100000003448
0.00100000005396
0.0010000000542
0.00100000005421
0.00100000005401
0.0010000000537
0.00100000005327
0.00100000005281
0.00100000005216
0.00100000005158
0.00100000005136
0.00100000005144
0.00100000005172
0.00100000005212
0.00100000005281
0.00100000005374
0.0010000000546
0.00100000005494
0.0010000000551
0.00100000005521
0.00100000005486
0.00100000005438
0.00100000005396
0.00100000005372
0.00100000005353
0.00100000005327
0.00100000005327
0.00100000005311
0.00100000005315
0.00100000005291
0.0010000000526
0.00100000005243
0.00100000005239
0.00100000005231
0.00100000005216
0.00100000005171
0.00100000005092
0.00100000004992
0.00100000004882
0.00100000004794
0.00100000004711
0.00100000004635
0.00100000004601
0.00100000004601
0.00100000004623
0.0010000000464
0.00100000004666
0.00100000004708
0.00100000004744
0.00100000004752
0.00100000004759
0.00100000004793
0.00100000004833
0.00100000004884
0.00100000004952
0.00100000004999
0.00100000005062
0.00100000005123
0.00100000005168
0.00100000005208
0.0010000000524
0.00100000005258
0.00100000005282
0.00100000005315
0.0010000000536
0.00100000005621
0.00100000005608
0.00100000005596
0.00100000005558
0.00100000005508
0.00100000005493
0.00100000005469
0.00100000005388
0.00100000005269
0.00100000005172
0.0010000000512
0.00100000005091
0.00100000005022
0.00100000004959
0.00100000004955
0.00100000004961
0.0010000000496
0.00100000004946