/*--------------------------------*- C++ -*----------------------------------*\
  =========                 |
  \\      /  F ield         | OpenFOAM: The Open Source CFD Toolbox
   \\    /   O peration     | Website:  https://openfoam.org
    \\  /    A nd           | Version:  6
     \\/     M anipulation  |
\*---------------------------------------------------------------------------*/
FoamFile
{
    version     2.0;
    format      ascii;
    class       volScalarField;
    location    "4e-08";
    object      p;
}
// * * * * * * * * * * * * * * * * * * * * * * * * * * * * * * * * * * * * * //

dimensions      [1 -1 -2 0 0 0 0];

internalField   nonuniform List<scalar> 
12288
(
4997499.72097
4997498.90835
4997498.1095
4997497.37229
4997496.74184
4997496.22291
4997495.80395
4997495.48746
4997495.27877
4997495.15037
4997495.08026
4997495.05612
4997495.04608
4997495.03377
4997495.00321
4997494.93402
4997494.82075
4997494.66305
4997494.45751
4997494.18923
4997493.84539
4997493.42604
4997492.92562
4997492.32715
4997491.62404
4997490.84031
4997489.99945
4997489.12822
4997488.25871
4997487.43219
4997486.69281
4997486.09255
4997485.67602
4997485.47628
4997485.48727
4997485.74313
4997486.27999
4997487.04654
4997488.0251
4997489.21459
4997490.58955
4997492.097
4997493.67143
4997495.25577
4997496.80689
4997498.26585
4997499.53482
4997500.62194
4997501.57967
4997502.35729
4997502.97783
4997503.46146
4997503.82151
4997504.0598
4997504.183
4997504.21124
4997504.1388
4997503.95451
4997503.65506
4997503.23216
4997502.68775
4997502.03679
4997501.30573
4997500.52542
4997376.97572
4997375.64153
4997374.43076
4997373.38538
4997372.54048
4997371.91457
4997371.49318
4997371.26956
4997371.20083
4997371.24997
4997371.39679
4997371.57698
4997371.76959
4997371.97681
4997372.20212
4997372.35427
4997372.50644
4997372.67994
4997372.84909
4997372.99358
4997373.08508
4997373.11052
4997373.03843
4997372.82535
4997372.40976
4997371.7384
4997370.78643
4997369.55863
4997368.14016
4997366.54654
4997364.84377
4997363.12863
4997361.51913
4997360.11547
4997358.98628
4997358.23331
4997357.92103
4997357.95908
4997358.36427
4997359.28215
4997360.72919
4997362.66997
4997365.00156
4997367.59167
4997370.31199
4997373.04338
4997375.64263
4997377.99248
4997380.03601
4997381.75877
4997383.13708
4997384.18945
4997384.94559
4997385.43199
4997385.64376
4997385.63886
4997385.42691
4997384.96502
4997384.28551
4997383.40039
4997382.32621
4997381.09983
4997379.76586
4997378.37253
4997299.78698
4997298.11553
4997296.62339
4997295.36948
4997294.38982
4997293.67715
4997293.20111
4997292.95524
4997292.89
4997292.94272
4997293.06818
4997293.22359
4997293.39791
4997293.6222
4997293.84187
4997294.03166
4997294.26027
4997294.50939
4997294.77617
4997295.05911
4997295.30682
4997295.45883
4997295.52121
4997295.50245
4997295.3319
4997294.92857
4997294.22913
4997293.16049
4997291.81055
4997290.20666
4997288.37585
4997286.41721
4997284.44268
4997282.57896
4997280.93585
4997279.61794
4997278.8059
4997278.55328
4997278.76389
4997279.48238
4997280.82936
4997282.84252
4997285.4763
4997288.60627
4997292.06304
4997295.67396
4997299.23071
4997302.50305
4997305.36703
4997307.77419
4997309.68839
4997311.10986
4997312.05235
4997312.54619
4997312.66829
4997312.45478
4997311.89403
4997311.04246
4997309.93221
4997308.56694
4997306.98856
4997305.25133
4997303.42115
4997301.57617
4997233.33513
4997231.65949
4997230.17331
4997228.91093
4997227.87801
4997227.0594
4997226.42592
4997225.95301
4997225.61606
4997225.36609
4997225.17091
4997225.02275
4997224.9245
4997224.8791
4997224.88266
4997224.9454
4997225.03923
4997225.18352
4997225.34858
4997225.48414
4997225.55715
4997225.56324
4997225.51747
4997225.41604
4997225.22308
4997224.89709
4997224.39571
4997223.67575
4997222.68161
4997221.43421
4997220.00272
4997218.41982
4997216.75656
4997215.11718
4997213.61023
4997212.34986
4997211.56156
4997211.33307
4997211.58529
4997212.3254
4997213.5814
4997215.41825
4997217.90472
4997221.01217
4997224.58547
4997228.40459
4997232.22464
4997235.80556
4997238.98222
4997241.66222
4997243.7966
4997245.38588
4997246.43956
4997246.92649
4997246.97477
4997246.66615
4997245.99039
4997245.01775
4997243.75542
4997242.25397
4997240.58947
4997238.81728
4997236.98324
4997235.13516
4997148.74407
4997147.43412
4997146.24774
4997145.19102
4997144.25431
4997143.41273
4997142.62836
4997141.86762
4997141.11621
4997140.3725
4997139.64071
4997138.93241
4997138.26685
4997137.66848
4997137.16338
4997136.76332
4997136.49227
4997136.25346
4997136.03097
4997135.79377
4997135.52488
4997135.22615
4997134.91088
4997134.58572
4997134.24635
4997133.87747
4997133.4566
4997132.95611
4997132.34402
4997131.58374
4997130.66139
4997129.6123
4997128.46811
4997127.28368
4997126.13519
4997125.10636
4997124.38316
4997124.11026
4997124.23629
4997124.74564
4997125.6652
4997127.01665
4997128.87768
4997131.30417
4997134.30144
4997137.64473
4997141.00715
4997144.33186
4997147.45778
4997150.2609
4997152.65923
4997154.60256
4997156.07279
4997157.05948
4997157.53947
4997157.6425
4997157.45503
4997156.96523
4997156.22752
4997155.28963
4997154.17965
4997152.92174
4997151.5579
4997150.14192
4997070.96061
4997069.94794
4997068.96074
4997067.99456
4997067.03494
4997066.06181
4997065.05144
4997063.98156
4997062.84172
4997061.63574
4997060.37779
4997059.092
4997057.81437
4997056.58367
4997055.4218
4997054.33312
4997053.3314
4997052.40103
4997051.48492
4997050.58649
4997049.72075
4997048.90847
4997048.17162
4997047.53022
4997046.99319
4997046.55678
4997046.20851
4997045.9273
4997045.68451
4997045.44949
4997045.17139
4997044.76563
4997044.26924
4997043.6875
4997043.05048
4997042.39134
4997041.80221
4997041.46575
4997041.3998
4997041.60802
4997042.15836
4997043.0549
4997044.34111
4997046.04216
4997048.21982
4997051.02859
4997053.74454
4997056.69153
4997059.72229
4997062.69645
4997065.50213
4997068.03467
4997070.20667
4997071.98147
4997073.35548
4997074.30368
4997074.84319
4997075.08117
4997075.11602
4997074.94282
4997074.51106
4997073.83253
4997072.96645
4997071.98354
4997025.93411
4997024.80363
4997023.57713
4997022.28061
4997020.93544
4997019.55833
4997018.15654
4997016.73034
4997015.278
4997013.79937
4997012.2956
4997010.77215
4997009.24189
4997007.71661
4997006.19286
4997004.6506
4997003.083
4997001.50134
4996999.91641
4996998.3482
4996996.82987
4996995.4017
4996994.1101
4996992.99963
4996992.10341
4996991.43513
4996990.99832
4996990.79048
4996990.75249
4996990.84645
4996991.07537
4996991.33516
4996991.48717
4996991.62156
4996991.65335
4996991.58594
4996991.41665
4996991.29327
4996991.31695
4996991.56231
4996992.10964
4996992.95042
4996994.11534
4996995.64492
4996997.57621
4996999.98093
4997002.71718
4997005.53496
4997008.56176
4997011.68653
4997014.78977
4997017.74898
4997020.4445
4997022.78564
4997024.73763
4997026.2982
4997027.45332
4997028.20736
4997028.63786
4997028.83823
4997028.80624
4997028.45625
4997027.8036
4997026.94385
4997005.39697
4997003.62947
4997001.67964
4996999.62111
4996997.53461
4996995.48319
4996993.51375
4996991.66307
4996989.94595
4996988.35892
4996986.88197
4996985.48846
4996984.14423
4996982.79753
4996981.39433
4996979.8962
4996978.28176
4996976.54121
4996974.68505
4996972.75262
4996970.80735
4996968.91091
4996967.12289
4996965.50037
4996964.10442
4996962.99472
4996962.21971
4996961.81943
4996961.7238
4996961.91646
4996962.4654
4996963.28124
4996964.21203
4996965.14513
4996966.0426
4996966.81084
4996967.43562
4996967.949
4996968.47943
4996969.163
4996970.07936
4996971.26756
4996972.74787
4996974.54634
4996976.6846
4996979.16762
4996982.09353
4996985.13345
4996988.29272
4996991.56292
4996994.85024
4996998.02722
4997000.96773
4997003.55598
4997005.72709
4997007.46646
4997008.74699
4997009.53206
4997009.88639
4997009.97377
4997009.76822
4997009.16501
4997008.19979
4997006.9308
4997037.19359
4997035.3053
4997033.11251
4997030.72734
4997028.27116
4997025.85199
4997023.56206
4997021.47045
4997019.61546
4997018.00007
4997016.58576
4997015.30088
4997014.06871
4997012.82237
4997011.50105
4997010.05175
4997008.43583
4997006.63349
4997004.64623
4997002.49959
4997000.24884
4996997.95734
4996995.69319
4996993.53694
4996991.58563
4996989.92368
4996988.60364
4996987.6906
4996987.26998
4996987.23294
4996987.58121
4996988.39892
4996989.5635
4996990.94554
4996992.42251
4996993.8751
4996995.27353
4996996.65526
4996998.03618
4996999.49822
4997001.12052
4997002.93839
4997004.94482
4997007.1185
4997009.43353
4997011.84729
4997014.36322
4997017.16849
4997019.65262
4997022.30925
4997025.01494
4997027.69234
4997030.26211
4997032.63621
4997034.75945
4997036.59015
4997038.05127
4997039.1172
4997039.87694
4997040.37706
4997040.58258
4997040.40409
4997039.77737
4997038.69808
4997088.05531
4997086.51782
4997084.54325
4997082.28053
4997079.88183
4997077.48628
4997075.20975
4997073.13336
4997071.2863
4997069.64452
4997068.14814
4997066.72573
4997065.3071
4997063.82371
4997062.21307
4997060.42554
4997058.4294
4997056.21537
4997053.8021
4997051.23951
4997048.60213
4997045.95367
4997043.35372
4997040.88365
4997038.64463
4997036.71962
4997035.14048
4997033.92961
4997033.1793
4997032.90048
4997032.97476
4997033.40556
4997034.23629
4997035.39047
4997036.77829
4997038.31437
4997039.96266
4997041.75616
4997043.67421
4997045.73076
4997047.92895
4997050.22506
4997052.55026
4997054.82661
4997056.9577
4997058.82572
4997060.59038
4997062.58304
4997063.91866
4997065.53385
4997067.43637
4997069.55472
4997071.85563
4997074.26898
4997076.72976
4997079.16611
4997081.44947
4997083.50476
4997085.34751
4997086.97993
4997088.29968
4997089.08272
4997089.36841
4997089.02509
4997158.09064
4997157.05873
4997155.44778
4997153.46956
4997151.29413
4997149.06776
4997146.90301
4997144.86568
4997142.96916
4997141.1847
4997139.45941
4997137.72997
4997135.92936
4997133.99413
4997131.87666
4997129.55421
4997127.02969
4997124.32197
4997121.47212
4997118.61614
4997115.88434
4997113.31916
4997110.9496
4997108.82611
4997107.00892
4997105.5379
4997104.39866
4997103.5397
4997102.95674
4997102.67971
4997102.61087
4997102.68887
4997102.9385
4997103.35169
4997103.93734
4997104.73026
4997105.78708
4997107.16699
4997108.86557
4997110.8586
4997113.08454
4997115.43446
4997117.77055
4997119.94305
4997121.80412
4997123.25781
4997124.5589
4997125.76724
4997126.33081
4997127.22875
4997128.50388
4997130.20433
4997132.37288
4997134.96858
4997137.90873
4997141.08898
4997144.33996
4997147.48387
4997150.41464
4997153.1026
4997155.4382
4997157.12143
4997158.13046
4997158.38098
4997255.60097
4997254.72029
4997253.16141
4997251.15739
4997248.9003
4997246.54299
4997244.1976
4997241.93082
4997239.76317
4997237.67396
4997235.61292
4997233.51729
4997231.32698
4997228.99899
4997226.52311
4997223.92308
4997221.21522
4997218.43842
4997215.67268
4997213.18987
4997211.02033
4997209.10851
4997207.47634
4997206.13912
4997205.09936
4997204.36437
4997203.91545
4997203.6918
4997203.62413
4997203.66028
4997203.75936
4997203.90696
4997204.08944
4997204.22574
4997204.33841
4997204.49748
4997204.81884
4997205.39919
4997206.29391
4997207.53439
4997209.1192
4997210.99449
4997213.0473
4997215.11821
4997217.01967
4997218.60521
4997220.04579
4997221.20367
4997221.79572
4997222.60329
4997223.67488
4997225.13837
4997227.12876
4997229.70022
4997232.80438
4997236.30641
4997239.9944
4997243.59799
4997246.91076
4997249.86909
4997252.39071
4997254.26196
4997255.29857
4997255.75527
4997359.17253
4997358.2123
4997356.53561
4997354.37791
4997351.94685
4997349.41052
4997346.89175
4997344.458
4997342.11735
4997339.82817
4997337.52703
4997335.16439
4997332.73112
4997330.25684
4997327.78096
4997325.30126
4997322.92768
4997320.72956
4997318.91477
4997317.49368
4997316.25888
4997315.12752
4997314.12662
4997313.2462
4997312.47967
4997311.88842
4997311.55768
4997311.46733
4997311.57021
4997311.83155
4997312.20153
4997312.71101
4997313.35042
4997313.96011
4997314.43687
4997314.72647
4997314.87232
4997314.98101
4997315.1576
4997315.53094
4997316.24053
4997317.36373
4997318.87098
4997320.62475
4997322.41022
4997324.03985
4997325.63439
4997326.98198
4997327.6519
4997328.41088
4997329.34326
4997330.54908
4997332.22402
4997334.52199
4997337.44439
4997340.8379
4997344.45115
4997347.97587
4997351.17907
4997354.00433
4997356.40293
4997358.11445
4997358.98932
4997359.37977
4997418.07962
4997417.31055
4997415.73139
4997413.6201
4997411.22164
4997408.73566
4997406.3029
4997403.98312
4997401.75307
4997399.54234
4997397.28911
4997394.97993
4997392.65323
4997390.38067
4997388.27377
4997386.31429
4997384.73922
4997383.62919
4997382.89906
4997382.29532
4997381.60469
4997380.783
4997379.84686
4997378.79075
4997377.66156
4997376.6008
4997375.73769
4997375.14309
4997374.82666
4997374.71188
4997374.82464
4997375.26842
4997375.83416
4997376.61626
4997377.49183
4997378.30283
4997378.9679
4997379.5727
4997380.23034
4997381.01571
4997381.95945
4997383.02838
4997384.08825
4997384.98708
4997385.62658
4997385.99282
4997386.36385
4997386.69951
4997386.44452
4997386.5472
4997387.01133
4997387.85502
4997389.25552
4997391.34794
4997394.12586
4997397.45452
4997401.10133
4997404.7676
4997408.20969
4997411.32788
4997414.05644
4997416.14227
4997417.43699
4997418.09908
4997418.09957
4997417.58578
4997416.22304
4997414.24976
4997411.94119
4997409.52295
4997407.15365
4997404.89955
4997402.7406
4997400.62025
4997398.49689
4997396.36796
4997394.27669
4997392.31484
4997390.5533
4997389.10734
4997388.11482
4997387.47986
4997387.00538
4997386.47112
4997385.75863
4997384.8664
4997383.81907
4997382.62567
4997381.33768
4997380.06846
4997378.91211
4997377.93393
4997377.17903
4997376.66788
4997376.40201
4997376.25599
4997376.29647
4997376.67273
4997377.42941
4997378.53706
4997379.84989
4997381.34693
4997383.15209
4997385.16821
4997387.08499
4997388.66117
4997389.58223
4997389.7111
4997389.19205
4997388.21796
4997387.0696
4997386.03059
4997384.87694
4997384.29367
4997384.20293
4997384.59384
4997385.71088
4997387.61539
4997390.27946
4997393.60767
4997397.41001
4997401.40351
4997405.3129
4997408.97852
4997412.26919
4997414.95337
4997416.87227
4997417.87782
4997376.51718
4997376.11041
4997374.92029
4997373.08026
4997370.81534
4997368.34498
4997365.84267
4997363.41012
4997361.08203
4997358.85408
4997356.71364
4997354.66658
4997352.74619
4997351.00376
4997349.47729
4997348.24207
4997347.27603
4997346.46711
4997345.72076
4997344.93651
4997344.07573
4997343.16569
4997342.22438
4997341.24413
4997340.22927
4997339.20821
4997338.19725
4997337.21839
4997336.34213
4997335.6175
4997334.98814
4997334.34065
4997333.96338
4997333.90504
4997334.35341
4997335.54794
4997337.38311
4997339.74317
4997342.73223
4997345.86831
4997348.70903
4997350.91194
4997352.03871
4997352.13764
4997351.41745
4997350.00065
4997348.23616
4997346.3913
4997344.71345
4997343.45895
4997342.79347
4997342.49451
4997342.91984
4997344.28387
4997346.57729
4997349.70478
4997353.49276
4997357.66085
4997361.87266
4997365.89422
4997369.58598
4997372.69243
4997374.94294
4997376.15722
4997306.09111
4997305.73182
4997304.64124
4997302.9066
4997300.70759
4997298.23101
4997295.65452
4997293.11176
4997290.68142
4997288.39259
4997286.25782
4997284.2969
4997282.53693
4997280.99619
4997279.67282
4997278.58187
4997277.63619
4997276.72981
4997275.83345
4997274.92473
4997274.0234
4997273.17122
4997272.36856
4997271.58782
4997270.7997
4997269.97612
4997269.08538
4997268.10923
4997267.12855
4997266.24868
4997265.23897
4997264.27471
4997263.6136
4997263.39283
4997263.796
4997265.07176
4997267.29485
4997270.44955
4997274.26581
4997278.07067
4997281.46927
4997284.12688
4997285.63161
4997285.982
4997285.4043
4997284.02889
4997282.11718
4997279.89003
4997277.69831
4997275.77804
4997274.31447
4997273.37295
4997273.14847
4997273.83929
4997275.69017
4997278.56077
4997282.23051
4997286.40265
4997290.71948
4997294.89706
4997298.76458
4997302.03323
4997304.38236
4997305.68857
4997224.95894
4997224.56989
4997223.48897
4997221.77519
4997219.57824
4997217.0226
4997214.25695
4997211.45432
4997208.76489
4997206.26561
4997203.98809
4997201.96074
4997200.20403
4997198.70047
4997197.39536
4997196.22184
4997195.07856
4997193.91482
4997192.81486
4997191.83645
4997191.02283
4997190.38053
4997189.85899
4997189.37345
4997188.83923
4997188.17649
4997187.31173
4997186.20011
4997185.02143
4997183.74538
4997182.30774
4997181.16169
4997180.553
4997180.54085
4997181.2467
4997182.91895
4997185.6496
4997189.33828
4997193.34899
4997197.13989
4997200.53213
4997203.36992
4997205.4445
4997206.56661
4997206.84143
4997206.36492
4997205.13847
4997203.2857
4997201.01991
4997198.63282
4997196.31306
4997194.56857
4997193.72116
4997193.89026
4997195.26328
4997197.9337
4997201.53086
4997205.67667
4997209.98629
4997214.16477
4997217.98208
4997221.11354
4997223.33688
4997224.59282
4997109.33053
4997108.90434
4997107.80681
4997106.11054
4997103.91838
4997101.39995
4997098.63941
4997095.85303
4997093.19054
4997090.68242
4997088.34952
4997086.24419
4997084.40147
4997082.79828
4997081.38055
4997080.10093
4997078.88212
4997077.7564
4997076.86822
4997076.25257
4997075.89534
4997075.73561
4997075.65564
4997075.50996
4997075.18005
4997074.56169
4997073.59164
4997072.33303
4997070.87303
4997069.12708
4997067.55367
4997066.48647
4997066.09612
4997066.37295
4997067.39898
4997069.36814
4997072.14908
4997075.43532
4997078.75954
4997081.93284
4997084.95997
4997087.80251
4997090.38012
4997092.49101
4997093.75866
4997094.07112
4997093.49314
4997091.97528
4997089.63336
4997086.82604
4997083.8907
4997081.66946
4997080.50246
4997080.41682
4997081.49371
4997083.9843
4997087.45247
4997091.44327
4997095.55518
4997099.48905
4997103.0049
4997105.84859
4997107.87526
4997109.02434
4996970.12652
4996969.70875
4996968.62842
4996967.02019
4996964.98141
4996962.60715
4996960.19002
4996957.89652
4996955.71254
4996953.55871
4996951.44717
4996949.44397
4996947.59534
4996945.92128
4996944.46453
4996943.16274
4996942.0353
4996941.22211
4996940.82286
4996940.78497
4996941.01614
4996941.4108
4996941.78692
4996941.94483
4996941.79113
4996941.23147
4996940.24744
4996938.93853
4996937.07693
4996935.22251
4996933.77283
4996932.93658
4996932.75296
4996933.24619
4996934.49983
4996936.41239
4996938.69377
4996941.0668
4996943.37624
4996945.69544
4996948.09251
4996950.54612
4996952.98759
4996955.14864
4996956.52035
4996956.86036
4996956.20424
4996954.57369
4996952.08712
4996949.06969
4996945.97903
4996943.65802
4996942.36382
4996942.13813
4996943.03012
4996945.28838
4996948.59481
4996952.47425
4996956.49519
4996960.35296
4996963.81794
4996966.64099
4996968.66221
4996969.81461
4996826.93602
4996826.67366
4996825.79469
4996824.40581
4996822.68515
4996820.78106
4996818.9044
4996817.40388
4996815.91196
4996814.32083
4996812.64172
4996810.92581
4996809.22079
4996807.59645
4996806.19828
4996804.93508
4996804.00375
4996803.57253
4996803.59243
4996803.95755
4996804.62441
4996805.38378
4996806.02328
4996806.31018
4996806.22662
4996805.7694
4996804.87048
4996803.49478
4996801.69169
4996800.06166
4996798.87849
4996798.29919
4996798.26343
4996798.83939
4996800.07341
4996801.64915
4996803.30825
4996804.92028
4996806.52866
4996808.26773
4996810.13463
4996812.03412
4996813.81231
4996815.13497
4996815.63527
4996815.30973
4996814.11271
4996812.02361
4996809.32462
4996806.23316
4996803.12678
4996800.66302
4996799.10203
4996798.57109
4996799.11877
4996800.95347
4996804.02309
4996807.86453
4996811.99373
4996816.0691
4996819.81395
4996822.88379
4996825.10298
4996826.46136
4996692.52962
4996692.50502
4996691.94809
4996690.89425
4996689.6009
4996688.3
4996687.14165
4996686.25996
4996685.36543
4996684.31654
4996683.10121
4996681.74297
4996680.27432
4996678.78386
4996677.46323
4996676.26144
4996675.52826
4996675.30968
4996675.53669
4996676.12247
4996676.9463
4996677.77157
4996678.40396
4996678.65199
4996678.52387
4996678.04194
4996677.11485
4996675.76892
4996674.34853
4996673.09122
4996672.24388
4996671.93027
4996672.04882
4996672.67024
4996673.7675
4996674.985
4996676.18297
4996677.39163
4996678.72214
4996680.24414
4996681.86048
4996683.38785
4996684.55613
4996685.02609
4996684.79655
4996683.87194
4996682.16751
4996679.87323
4996677.16136
4996674.09177
4996670.91549
4996668.13219
4996666.11061
4996665.11641
4996665.19249
4996666.45889
4996669.1564
4996672.83908
4996676.96638
4996681.12281
4996684.94415
4996688.03653
4996690.31207
4996691.85081
4996574.12489
4996574.20928
4996573.84483
4996573.09376
4996572.21337
4996571.44283
4996570.86507
4996570.41446
4996569.90836
4996569.22862
4996568.37752
4996567.342
4996566.12098
4996564.78935
4996563.50926
4996562.39775
4996561.79204
4996561.65376
4996561.93467
4996562.56167
4996563.33983
4996564.0502
4996564.53318
4996564.66936
4996564.44139
4996563.81567
4996562.75665
4996561.49356
4996560.39338
4996559.45352
4996558.91549
4996558.82619
4996559.10008
4996559.8045
4996560.78417
4996561.75229
4996562.70066
4996563.7713
4996565.08403
4996566.64927
4996568.32153
4996569.86232
4996570.93261
4996571.28242
4996570.9603
4996569.97466
4996568.3519
4996566.25721
4996563.75166
4996560.81741
4996557.60185
4996554.51561
4996552.06714
4996550.57668
4996550.24823
4996551.07778
4996553.31305
4996556.62672
4996560.43295
4996564.21225
4996567.56389
4996570.17145
4996572.08073
4996573.43703
4996474.20325
4996474.11559
4996473.69626
4996473.05077
4996472.45213
4996472.06863
4996471.85441
4996471.6725
4996471.42909
4996471.00753
4996470.40045
4996469.59088
4996468.55727
4996467.36456
4996466.12133
4996465.14429
4996464.62687
4996464.53491
4996464.81467
4996465.39468
4996466.04122
4996466.57596
4996466.88211
4996466.90527
4996466.56679
4996465.76639
4996464.60976
4996463.4504
4996462.50801
4996461.73063
4996461.3848
4996461.4309
4996461.78823
4996462.51618
4996463.37147
4996464.16748
4996465.00818
4996466.09683
4996467.55742
4996469.38121
4996471.40271
4996473.34186
4996474.84863
4996475.58327
4996475.60933
4996475.01562
4996473.75772
4996471.94325
4996469.62782
4996466.82886
4996463.63613
4996460.38984
4996457.68535
4996455.9046
4996455.38714
4996456.02952
4996457.93954
4996460.86598
4996464.2181
4996467.39329
4996470.00165
4996471.84866
4996473.08531
4996473.8761
4996392.40956
4996391.88479
4996391.13476
4996390.39761
4996389.92736
4996389.78447
4996389.79327
4996389.79964
4996389.75694
4996389.5579
4996389.14062
4996388.49065
4996387.58136
4996386.46049
4996385.34069
4996384.49772
4996384.07985
4996384.04214
4996384.32139
4996384.84424
4996385.34852
4996385.6949
4996385.82544
4996385.71416
4996385.22438
4996384.26615
4996383.09944
4996382.06221
4996381.22946
4996380.53245
4996380.27791
4996380.35271
4996380.68473
4996381.29707
4996381.95319
4996382.58838
4996383.3942
4996384.5976
4996386.32369
4996388.5573
4996391.09356
4996393.56592
4996395.58927
4996396.8361
4996397.22541
4996396.90416
4996395.8683
4996394.10543
4996391.77335
4996388.97623
4996385.79591
4996382.52521
4996379.79305
4996378.04962
4996377.57939
4996378.277
4996380.1621
4996382.9177
4996385.9782
4996388.74722
4996390.781
4996391.99119
4996392.55527
4996392.64559
4996327.51485
4996326.41268
4996325.23367
4996324.27919
4996323.80737
4996323.75487
4996323.8777
4996324.04902
4996324.1843
4996324.1952
4996323.97977
4996323.48074
4996322.67352
4996321.64729
4996320.68766
4996319.96292
4996319.64658
4996319.65715
4996319.93758
4996320.40685
4996320.78224
4996320.95076
4996320.92925
4996320.65073
4996319.94463
4996318.86466
4996317.74905
4996316.84083
4996316.13273
4996315.52194
4996315.33324
4996315.37179
4996315.58441
4996315.97236
4996316.37015
4996316.84633
4996317.65451
4996319.01836
4996321.05187
4996323.71607
4996326.71413
4996329.56661
4996331.8751
4996333.35727
4996333.88478
4996333.5891
4996332.47451
4996330.54741
4996328.05434
4996325.16201
4996321.98717
4996318.82002
4996316.25541
4996314.79286
4996314.5271
4996315.4166
4996317.47428
4996320.27393
4996323.29206
4996325.93915
4996327.74241
4996328.61992
4996328.76986
4996328.36021
4996277.27204
4996275.65568
4996274.05671
4996272.83555
4996272.24417
4996272.14264
4996272.27739
4996272.55914
4996272.8912
4996273.10389
4996273.08907
4996272.7816
4996272.13168
4996271.29224
4996270.48363
4996269.86395
4996269.61032
4996269.63911
4996269.90182
4996270.29533
4996270.54266
4996270.58352
4996270.43729
4996269.97181
4996269.06773
4996267.93504
4996266.91222
4996266.13241
4996265.55197
4996265.04101
4996264.90799
4996264.89008
4996264.9572
4996265.10153
4996265.2632
4996265.62226
4996266.46634
4996267.99768
4996270.30439
4996273.28489
4996276.51836
4996279.46222
4996281.76625
4996283.21136
4996283.69816
4996283.30316
4996282.029
4996279.97075
4996277.3866
4996274.45739
4996271.34644
4996268.37231
4996266.04393
4996264.90337
4996264.83072
4996265.86447
4996268.06696
4996270.94412
4996274.01384
4996276.68422
4996278.48437
4996279.27709
4996279.29288
4996278.61137
4996238.97755
4996236.96492
4996235.00377
4996233.51466
4996232.71976
4996232.48194
4996232.55275
4996232.8561
4996233.32073
4996233.75761
4996233.96415
4996233.85715
4996233.44989
4996232.84937
4996232.21409
4996231.70037
4996231.48175
4996231.50116
4996231.71223
4996231.99858
4996232.11649
4996232.06338
4996231.81447
4996231.19226
4996230.18779
4996229.11127
4996228.22993
4996227.58589
4996227.12375
4996226.70331
4996226.6161
4996226.54642
4996226.49787
4996226.47505
4996226.49536
4996226.81361
4996227.7288
4996229.40466
4996231.89094
4996234.99702
4996238.21215
4996241.02273
4996243.17311
4996244.5042
4996244.93602
4996244.51487
4996243.24565
4996241.2467
4996238.73157
4996235.87019
4996232.8631
4996230.04778
4996227.8729
4996226.90035
4996226.86581
4996227.89268
4996230.08113
4996232.93843
4996236.02189
4996238.73083
4996240.58257
4996241.39339
4996241.40755
4996240.61594
4996210.83826
4996208.55914
4996206.31671
4996204.59219
4996203.56986
4996203.15703
4996203.11573
4996203.36318
4996203.87608
4996204.46932
4996204.89542
4996205.01015
4996204.85184
4996204.50779
4996204.08068
4996203.70209
4996203.53218
4996203.54677
4996203.70201
4996203.86953
4996203.87427
4996203.74116
4996203.39807
4996202.69314
4996201.72266
4996200.81401
4996200.12489
4996199.63466
4996199.29257
4996198.95303
4996198.91792
4996198.8201
4996198.71438
4996198.64282
4996198.64138
4996198.99197
4996199.99097
4996201.75798
4996204.29818
4996207.34558
4996210.37681
4996212.97431
4996214.97799
4996216.27136
4996216.7357
4996216.41966
4996215.32937
4996213.49952
4996211.09658
4996208.29545
4996205.32424
4996202.50988
4996200.31458
4996199.26906
4996199.12873
4996200.00506
4996202.0402
4996204.80968
4996207.86814
4996210.60021
4996212.50061
4996213.34113
4996213.38985
4996212.60664
4996191.96938
4996189.56745
4996187.15007
4996185.25459
4996184.03819
4996183.43248
4996183.2675
4996183.43739
4996183.91319
4996184.55394
4996185.13953
4996185.44691
4996185.49355
4996185.38887
4996185.18631
4996184.98287
4996184.90034
4996184.95061
4996185.09167
4996185.17619
4996185.09945
4996184.90406
4996184.50003
4996183.80148
4996182.98156
4996182.31093
4996181.83924
4996181.51573
4996181.30488
4996181.0471
4996181.07696
4996180.99124
4996180.89998
4996180.85833
4996180.90877
4996181.33062
4996182.38749
4996184.17084
4996186.64766
4996189.52147
4996192.32149
4996194.73377
4996196.6598
4996197.99758
4996198.55152
4996198.38165
4996197.47799
4996195.74722
4996193.34757
4996190.48423
4996187.4106
4996184.43677
4996182.04489
4996180.75857
4996180.48235
4996181.13898
4996182.96942
4996185.64893
4996188.69579
4996191.47256
4996193.44195
4996194.33999
4996194.43953
4996193.72161
4996181.26932
4996178.88754
4996176.41002
4996174.4157
4996173.05429
4996172.27493
4996172.00379
4996172.09733
4996172.48673
4996173.08762
4996173.71719
4996174.17252
4996174.40153
4996174.49098
4996174.5184
4996174.52452
4996174.58626
4996174.7413
4996174.93496
4996175.00404
4996174.90465
4996174.69146
4996174.29203
4996173.69459
4996173.10406
4996172.69952
4996172.45181
4996172.30765
4996172.25058
4996172.08957
4996172.18912
4996172.15298
4996172.1217
4996172.13347
4996172.23808
4996172.70652
4996173.76256
4996175.48017
4996177.8054
4996180.45488
4996183.0355
4996185.30888
4996187.19247
4996188.57566
4996189.19402
4996189.09472
4996188.23315
4996186.43716
4996183.88679
4996180.82381
4996177.52869
4996174.28795
4996171.5928
4996170.03435
4996169.61628
4996170.09714
4996171.72853
4996174.33071
4996177.39193
4996180.24822
4996182.32735
4996183.34063
4996183.51669
4996182.89337
4996177.4878
4996175.21144
4996172.74625
4996170.70462
4996169.25014
4996168.34856
4996168.00226
4996168.03119
4996168.33049
4996168.86468
4996169.48305
4996170.02168
4996170.41479
4996170.69459
4996170.91554
4996171.11193
4996171.34053
4996171.63448
4996171.91128
4996172.01415
4996171.94625
4996171.77154
4996171.43837
4996170.98281
4996170.60249
4996170.40881
4996170.33938
4996170.34456
4996170.41843
4996170.34906
4996170.50535
4996170.52211
4996170.53707
4996170.5762
4996170.69533
4996171.15416
4996172.16049
4996173.7771
4996175.94665
4996178.41156
4996180.83056
4996183.00276
4996184.83477
4996186.20365
4996186.81949
4996186.69117
4996185.74766
4996183.81151
4996181.07463
4996177.79777
4996174.27751
4996170.77356
4996167.78799
4996165.98648
4996165.42034
4996165.78145
4996167.22559
4996169.72546
4996172.79189
4996175.7453
4996177.98745
4996179.17549
4996179.45887
4996178.9474
4996178.48869
4996176.34579
4996173.92459
4996171.85314
4996170.32864
4996169.33489
4996168.92531
4996168.8968
4996169.12533
4996169.60998
4996170.21948
4996170.82762
4996171.38024
4996171.87047
4996172.31409
4996172.74576
4996173.20985
4996173.71118
4996174.14307
4996174.39109
4996174.47421
4996174.47176
4996174.35178
4996174.16047
4996174.08009
4996174.16938
4996174.34615
4996174.57023
4996174.82154
4996174.90877
4996175.16167
4996175.25615
4996175.31421
4996175.36177
4996175.45732
4996175.85346
4996176.74589
4996178.18882
4996180.12578
4996182.33095
4996184.5153
4996186.50189
4996188.17705
4996189.40062
4996189.89714
4996189.6019
4996188.41755
4996186.21756
4996183.20733
4996179.64554
4996175.84034
4996172.03795
4996168.76051
4996166.71397
4996165.99694
4996166.24413
4996167.55172
4996169.93894
4996172.97874
4996175.99888
4996178.38518