/*--------------------------------*- C++ -*----------------------------------*\
  =========                 |
  \\      /  F ield         | OpenFOAM: The Open Source CFD Toolbox
   \\    /   O peration     | Website:  https://openfoam.org
    \\  /    A nd           | Version:  6
     \\/     M anipulation  |
\*---------------------------------------------------------------------------*/
FoamFile
{
    version     2.0;
    format      ascii;
    class       volScalarField;
    location    "4e-08";
    object      rho;
}
// * * * * * * * * * * * * * * * * * * * * * * * * * * * * * * * * * * * * * //

dimensions      [1 -3 0 0 0 0 0];

internalField   nonuniform List<scalar> 
12288
(
27.9265484905
27.9265454184
27.9265424728
27.926539834
27.9265376737
27.9265360081
27.9265347901
27.9265340297
27.9265337431
27.9265337801
27.9265340639
27.9265345501
27.9265350722
27.9265355232
27.9265358061
27.9265358558
27.9265356692
27.9265352318
27.9265345294
27.9265335273
27.9265321983
27.926530554
27.9265285813
27.9265262246
27.9265234622
27.9265203844
27.9265170781
27.9265136443
27.9265102063
27.9265069217
27.9265039578
27.9265015222
27.9264997867
27.9264989244
27.9264988412
27.9264996903
27.9265016492
27.9265044859
27.9265081278
27.9265125752
27.9265177315
27.9265233937
27.926529313
27.926535276
27.9265411242
27.9265466316
27.9265514136
27.9265555084
27.9265591102
27.926562009
27.926564286
27.9265660055
27.9265672049
27.9265678863
27.926568098
27.9265679367
27.9265673777
27.9265663555
27.9265648586
27.9265628886
27.926560483
27.9265577201
27.9265547193
27.92655161
27.9259912375
27.9259858673
27.9259810281
27.9259768914
27.9259736066
27.9259712667
27.9259698392
27.925969284
27.9259693088
27.9259698004
27.9259707567
27.9259718801
27.9259730313
27.9259742007
27.92597538
27.9259761946
27.9259769474
27.9259777204
27.9259784001
27.9259789099
27.9259791541
27.9259790849
27.9259785606
27.9259773793
27.9259753533
27.9259722922
27.9259680737
27.9259627316
27.9259566162
27.9259498045
27.9259425771
27.9259353365
27.9259285679
27.9259226798
27.925917951
27.9259147969
27.9259134834
27.9259135872
27.9259152155
27.9259189797
27.9259248987
27.9259328134
27.9259423105
27.9259528578
27.9259639339
27.92597505
27.9259856334
27.9259952273
27.9260035935
27.926010666
27.9260163457
27.9260207011
27.92602384
27.9260258505
27.9260267073
27.9260266789
27.9260258047
27.9260238998
27.9260210978
27.9260174522
27.9260130369
27.9260080094
27.9260025596
27.9259968917
27.9256315437
27.925624915
27.9256189804
27.9256139756
27.9256100338
27.9256071183
27.9256051255
27.9256040625
27.9256037554
27.9256038512
27.9256041465
27.9256045334
27.9256049901
27.92560565
27.9256062984
27.9256068321
27.9256075383
27.925608346
27.9256092385
27.9256102043
27.925611033
27.9256114879
27.9256116186
27.9256114192
27.9256106046
27.9256089063
27.9256060659
27.9256017779
27.9255964071
27.9255900623
27.9255828513
27.9255751655
27.9255674433
27.9255601806
27.925553812
27.9255487588
27.9255457121
27.9255448064
27.9255457807
27.9255488227
27.9255543195
27.9255624313
27.9255729953
27.9255855104
27.9255992971
27.9256136768
27.9256278352
27.925640865
27.9256522768
27.92566188
27.9256695359
27.9256752606
27.9256791107
27.9256811719
27.9256817078
27.925680937
27.9256788282
27.9256755702
27.9256712907
27.9256659991
27.925659854
27.9256530633
27.9256458821
27.9256386158
27.9253307616
27.9253241295
27.9253182039
27.9253131179
27.9253088731
27.9253053973
27.9253026105
27.9253004794
27.9252989
27.9252976157
27.9252964559
27.9252954485
27.9252946733
27.9252941552
27.9252938829
27.9252938965
27.9252940971
27.9252945698
27.9252951876
27.925295739
27.9252960702
27.9252961696
27.92529612
27.9252958729
27.9252952653
27.9252941466
27.9252923527
27.925289711
27.9252859982
27.925281299
27.9252758811
27.9252698621
27.925263512
27.9252572341
27.9252514562
27.9252466383
27.9252436652
27.9252428348
27.9252439026
27.9252469081
27.9252519132
27.9252591892
27.9252690219
27.92528129
27.9252953714
27.9253103994
27.9253254163
27.9253394751
27.9253519289
27.9253624223
27.9253707772
27.9253770171
27.9253811867
27.92538314
27.925383353
27.9253821972
27.9253796509
27.9253759698
27.9253711622
27.9253654129
27.9253590122
27.9253521681
27.9253450505
27.9253378361
27.924984933
27.9249797842
27.9249750762
27.9249708295
27.9249669937
27.9249634653
27.9249601144
27.9249568427
27.9249536049
27.9249503766
27.9249471686
27.9249440547
27.9249411473
27.9249385634
27.9249364089
27.9249347335
27.9249336381
27.9249327333
27.9249319496
27.9249311565
27.924930277
27.9249293098
27.9249282971
27.9249272516
27.9249261476
27.9249249246
27.9249234966
27.9249217571
27.9249195806
27.9249168162
27.9249134018
27.9249094715
27.9249051411
27.9249006158
27.9248961924
27.9248922055
27.9248893991
27.9248883416
27.924888829
27.9248907966
27.9248943499
27.9248995847
27.9249068159
27.9249162625
27.9249279425
27.9249409605
27.9249540281
27.9249669412
27.9249790677
27.9249899281
27.9249992171
27.9250067569
27.925012486
27.9250163515
27.9250182542
27.9250187007
27.9250180654
27.9250162927
27.9250135659
27.9250100575
27.9250058674
27.9250010808
27.9249958518
27.92499038
27.9246947316
27.9246907529
27.9246868512
27.9246830066
27.9246791582
27.9246752236
27.9246711112
27.9246667412
27.9246620835
27.9246571607
27.924652032
27.9246467989
27.9246416166
27.9246366481
27.9246319815
27.9246276377
27.924623677
27.9246200335
27.9246164776
27.9246130207
27.9246097156
27.9246066361
27.924603862
27.924601469
27.9245994904
27.9245979108
27.9245966823
27.9245957224
27.9245949162
27.9245941426
27.9245931934
27.9245917209
27.9245898754
27.9245876711
27.924585218
27.9245826489
27.9245803392
27.924579012
27.9245787374
27.9245795124
27.9245816148
27.924585074
27.924590066
27.9245966915
27.9246051937
27.9246161926
27.9246267885
27.9246383051
27.9246501562
27.9246617882
27.9246727664
27.9246826846
27.9246912018
27.9246981745
27.9247035855
27.9247073339
27.9247094984
27.9247104872
27.9247107042
27.9247101124
27.9247084904
27.9247058917
27.9247025478
27.9246987286
27.9245421779
27.9245377124
27.9245328668
27.9245277412
27.9245224173
27.9245169593
27.9245113939
27.9245057214
27.9244999368
27.9244940437
27.9244880493
27.9244819773
27.9244758808
27.9244698092
27.9244637504
27.9244576258
27.9244514101
27.9244451505
27.9244388903
27.9244327071
27.9244267299
27.9244211151
27.9244160451
27.924411696
27.9244081979
27.9244056037
27.9244039317
27.924403173
27.9244030642
27.9244034891
27.9244044599
27.9244055334
27.9244061686
27.9244067378
27.9244068961
27.9244066517
27.9244059956
27.92440552
27.9244056178
27.9244065825
27.9244087367
27.9244120444
27.9244166317
27.9244226653
27.9244302958
27.9244398092
27.9244506297
27.9244617638
27.9244737311
27.9244860841
27.9244983468
27.9245100332
27.9245206687
27.9245298969
27.9245375845
27.9245437235
27.9245482588
27.9245512129
27.9245528974
27.9245536813
27.9245535434
27.9245521488
27.9245495657
27.9245461674
27.9244739298
27.9244669589
27.9244592772
27.924451172
27.9244429588
27.924434882
27.9244271229
27.9244198245
27.9244130438
27.9244067679
27.9244009194
27.9243953961
27.9243900665
27.9243847287
27.9243791698
27.9243732387
27.924366852
27.9243599724
27.9243526422
27.9243450181
27.9243373508
27.9243298816
27.9243228448
27.9243164656
27.9243109838
27.9243066313
27.9243035954
27.924302033
27.9243016613
27.9243024213
27.9243045871
27.9243077933
27.9243114335
27.9243150776
27.9243185974
27.9243216089
27.9243240543
27.9243260628
27.9243281449
27.9243308398
27.9243344582
27.92433915
27.9243449982
27.9243521116
27.9243605792
27.924370424
27.9243820392
27.924394091
27.9244066128
27.9244195707
27.9244325867
27.9244451518
27.9244567662
27.9244669738
27.9244755232
27.9244823598
27.9244873743
27.9244904284
27.9244917895
27.9244921061
27.9244912591
27.9244888447
27.9244850123
27.9244799889
27.9246022045
27.9245947413
27.9245860867
27.9245766808
27.9245669996
27.9245574651
27.924548438
27.9245401893
27.9245328702
27.9245264947
27.9245209134
27.9245158452
27.924510988
27.9245060782
27.9245008759
27.9244951716
27.924488812
27.9244817187
27.9244738978
27.9244654506
27.9244565955
27.9244475811
27.9244386756
27.9244301971
27.9244225276
27.9244159961
27.9244108052
27.9244072131
27.924405557
27.9244054008
27.9244067548
27.9244099577
27.9244145167
27.9244199243
27.9244257114
27.9244314075
27.9244368904
27.9244423119
27.9244477341
27.9244534824
27.9244598699
27.9244670356
27.9244749543
27.9244835467
27.9244927145
27.9245022889
27.9245122852
27.9245234533
27.9245333201
27.9245438697
27.9245546025
27.9245652047
27.9245753601
27.9245847217
27.9245930749
27.9246002572
27.9246059673
27.9246101154
27.9246130597
27.924614977
27.9246157339
27.9246149756
27.9246124571
27.9246081647
27.9248022638
27.9247961613
27.9247883437
27.9247793971
27.9247699206
27.9247604606
27.9247514726
27.9247432771
27.9247359921
27.9247295249
27.9247236401
27.9247180554
27.9247124934
27.9247066821
27.9247003728
27.9246933668
27.9246855364
27.9246768425
27.9246673579
27.9246572781
27.9246468967
27.9246364649
27.9246262184
27.9246164803
27.9246076502
27.9246000539
27.9245938169
27.9245890324
27.9245860701
27.9245849685
27.9245852489
27.9245869383
27.9245902123
27.9245947607
27.9246002311
27.9246062846
27.9246127715
27.9246198263
27.9246273699
27.9246354607
27.9246441153
27.9246531632
27.9246623364
27.9246713336
27.9246797767
27.9246871924
27.9246942244
27.9247022175
27.9247075511
27.9247139981
27.9247215788
27.9247299894
27.9247390921
27.9247486082
27.9247582833
27.9247678373
27.9247767691
27.9247847964
27.9247919863
27.9247983446
27.9248034682
27.9248064782
27.9248075555
27.9248061432
27.9250750472
27.9250709373
27.9250645581
27.9250567393
27.9250481482
27.9250393609
27.9250308211
27.9250227893
27.9250153201
27.9250083018
27.9250015263
27.924994744
27.9249876896
27.9249801106
27.9249718158
27.9249627117
27.924952807
27.9249421727
27.9249309646
27.9249197176
27.9249089501
27.9248988289
27.9248894679
27.9248810692
27.9248738738
27.9248680411
27.9248635162
27.9248601016
27.9248577892
27.9248566925
27.9248564139
27.9248567147
27.9248577026
27.9248593429
27.9248616659
27.924864803
27.9248689736
27.9248744135
27.9248811068
27.9248889601
27.924897734
27.9249070012
27.9249162217
27.9249248084
27.9249321735
27.9249379313
27.9249431223
27.9249480008
27.92495026
27.9249538562
27.9249589504
27.9249657112
27.9249742941
27.9249845299
27.9249960926
27.9250085763
27.9250213202
27.9250336354
27.9250451139
27.9250556399
27.9250647749
27.9250713442
27.9250752833
27.9250762274
27.9254562789
27.9254527833
27.9254466222
27.9254387171
27.9254298199
27.9254205307
27.9254112916
27.9254023661
27.9253938365
27.925385623
27.9253775288
27.9253693065
27.9253607175
27.9253515891
27.9253418767
27.9253316711
27.9253210348
27.9253101138
27.9252992072
27.9252894041
27.9252808362
27.9252732779
27.925266815
27.9252615111
27.925257379
27.9252544504
27.9252526507
27.9252517426
27.9252514628
27.9252515917
27.9252519631
27.9252525311
27.9252532404
27.9252537665
27.9252542011
27.9252548213
27.9252560865
27.9252583781
27.9252619132
27.9252668153
27.9252730778
27.9252804867
27.9252885961
27.925296777
27.9253042836
27.9253105333
27.9253162406
27.9253208698
27.9253232064
27.925326416
27.9253306862
27.9253365073
27.9253443959
27.9253545521
27.9253667806
27.9253805539
27.925395045
27.9254091976
27.9254222089
27.9254338271
27.9254437123
27.9254510428
27.9254551114
27.9254569007
27.9258636452
27.9258598276
27.925853198
27.9258446849
27.9258350993
27.925825101
27.9258151737
27.9258055846
27.9257963678
27.9257873616
27.9257783169
27.9257690364
27.925759481
27.9257497659
27.9257400437
27.9257302947
27.9257209501
27.9257122714
27.9257050857
27.9256994597
27.9256945761
27.9256901008
27.9256861433
27.9256826646
27.9256796374
27.9256773075
27.9256760064
27.9256756473
27.925676046
27.9256770699
27.9256785232
27.9256805303
27.9256830476
27.9256854435
27.9256873041
27.9256884187
27.9256889762
27.9256893907
27.925690072
27.9256915336
27.9256943261
27.9256987559
27.9257047126
27.9257116557
27.925718727
27.9257251709
27.9257314934
27.9257368943
27.9257395727
27.9257426027
27.9257463329
27.9257511464
27.9257577981
27.9257668875
27.9257784147
27.9257917737
27.9258059809
27.9258198274
27.9258323957
27.9258434707
27.9258528606
27.9258595427
27.9258629483
27.92586448
27.9260981305
27.9260950578
27.9260887968
27.9260804511
27.9260709817
27.926061173
27.9260515794
27.9260424373
27.9260336559
27.9260249572
27.9260160951
27.9260070139
27.9259978647
27.9259889306
27.9259806463
27.925972922
27.9259666995
27.9259623045
27.9259594176
27.9259570422
27.925954326
27.9259510915
27.925947408
27.925943251
27.9259388027
27.9259346267
27.9259312313
27.9259288929
27.925927651
27.925927204
27.9259276713
27.9259294605
27.9259317223
27.925934833
27.925938293
27.9259414755
27.9259440574
27.9259463846
27.9259489044
27.9259519249
27.9259555788
27.9259597515
27.9259639352
27.9259675315
27.9259701307
27.9259716506
27.9259732131
27.9259746573
27.9259736856
27.9259741136
27.925975979
27.9259793491
27.9259849132
27.9259931901
27.9260041459
27.9260172504
27.9260315898
27.9260459898
27.9260595031
27.9260717346
27.9260824184
27.926090577
27.9260956373
27.9260982366
27.9261007295
27.926098672
27.9260932525
27.926085441
27.9260763212
27.9260667802
27.9260574428
27.9260485698
27.9260400802
27.9260317473
27.9260234018
27.9260150306
27.9260068065
27.9259990935
27.9259921586
27.9259864527
27.9259825391
27.9259800472
27.9259782016
27.9259761246
27.9259733366
27.9259698293
27.9259657041
27.9259609958
27.9259559062
27.9259508878
27.9259463155
27.9259424505
27.9259394733
27.9259374713
27.9259364579
27.9259359197
27.9259361261
27.9259376555
27.9259406653
27.9259450288
27.9259501554
27.9259559771
27.9259629971
27.92597085
27.9259783231
27.9259844884
27.9259881302
27.9259886769
27.9259866908
27.9259829249
27.925978498
27.9259745314
27.9259700287
27.9259677428
27.925967418
27.9259690138
27.9259734744
27.9259810194
27.9259915331
27.926004642
27.9260195975
27.9260352865
27.9260506394
27.9260650242
27.9260779123
27.9260884222
27.9260959547
27.9260998833
27.9259388332
27.9259371989
27.9259324633
27.9259251746
27.925916226
27.9259064819
27.9258966255
27.9258870567
27.9258779087
27.9258691594
27.9258607532
27.9258527104
27.9258451645
27.9258383192
27.925832316
27.9258274586
27.9258236717
27.9258205112
27.925817602
27.9258145394
27.9258111611
27.9258075751
27.9258038577
27.9257999803
27.925795961
27.9257919162
27.9257879108
27.925784034
27.9257805736
27.9257777326
27.9257752801
27.9257727398
27.9257712699
27.9257710575
27.9257728344
27.9257775325
27.9257847278
27.9257939596
27.9258056797
27.9258179957
27.925829154
27.925837821
27.9258422635
27.9258426577
27.9258398355
27.9258342747
27.9258273633
27.9258201886
27.9258136669
27.925808776
27.9258062317
27.9258051192
27.9258068691
27.9258123044
27.9258213669
27.9258336881
27.9258485881
27.9258649669
27.9258814965
27.9258972605
27.9259117169
27.9259238776
27.925932704
27.9259374425
27.9256636598
27.9256622211
27.9256578815
27.9256510071
27.9256423184
27.925632552
27.9256224082
27.9256124118
27.925602868
27.9255938853
27.9255855079
27.9255778103
27.9255709013
27.925564855
27.9255596614
27.9255553885
27.9255516976
27.9255481636
27.9255446659
27.9255411078
27.9255375616
27.9255341956
27.9255310169
27.9255279212
27.9255247972
27.9255215371
27.9255180132
27.9255141523
27.9255102889
27.9255068526
27.9255028923
27.9254990853
27.9254964669
27.9254955833
27.9254971486
27.9255021494
27.9255108695
27.9255232424
27.9255382583
27.9255532472
27.925566637
27.9255771141
27.925583033
27.9255843914
27.9255820974
27.925576662
27.9255691277
27.9255603805
27.9255518028
27.9255442918
27.9255385914
27.9255349483
27.9255341236
27.9255368978
27.9255442206
27.9255555269
27.9255699662
27.925586375
27.92560334
27.9256197398
27.9256349198
27.925647764
27.9256569938
27.9256620966
27.9253469248
27.9253453704
27.925341074
27.925334285
27.9253256057
27.9253155271
27.9253046353
27.9252936101
27.9252830418
27.92527323
27.9252642932
27.9252563389
27.9252494489
27.9252435578
27.9252384495
27.9252338622
27.9252293965
27.9252248421
27.9252205282
27.925216678
27.9252134613
27.9252109096
27.9252088316
27.9252068986
27.9252047813
27.925202166
27.9251987563
27.9251943704
27.9251897455
27.9251847601
27.9251790919
27.9251745532
27.9251721259
27.9251720549
27.9251747982
27.9251813439
27.9251920642
27.9252065801
27.9252223976
27.9252373501
27.9252507251
27.9252619073
27.9252700561
27.9252744185
27.9252754562
27.9252735474
27.9252686917
27.9252614013
27.9252525356
27.9252432252
27.9252341506
27.9252273465
27.9252240514
27.9252247606
27.9252301982
27.9252407162
27.9252548718
27.9252711838
27.9252881272
27.9253045422
27.9253195471
27.9253318681
27.9253406008
27.9253455058
27.9248941745
27.9248924812
27.9248881314
27.9248814187
27.9248727576
27.9248628197
27.9248519268
27.9248409341
27.9248304423
27.9248205731
27.9248114026
27.9248031325
27.9247959019
27.9247896211
27.9247840732
27.9247790678
27.924774295
27.9247698706
27.9247663683
27.9247639276
27.9247624949
27.9247618367
27.9247614972
27.9247609068
27.9247596002
27.9247571645
27.9247533399
27.9247483835
27.924742669
27.9247358023
27.9247295749
27.9247253262
27.9247237602
27.9247248186
27.9247288104
27.9247365333
27.9247474844
27.9247604668
27.9247736143
27.9247861566
27.9247981123
27.9248093269
27.9248194773
27.9248277737
27.924832744
27.9248339663
27.9248317012
27.9248257429
27.9248165723
27.9248056044
27.9247940718
27.9247853496
27.924780785
27.9247804699
27.9247847182
27.9247945332
27.9248081866
27.9248238907
27.9248400586
27.9248555177
27.9248693436
27.9248805355
27.9248884967
27.924892988
27.9243476681
27.9243460086
27.9243417269
27.9243353617
27.9243272975
27.9243179074
27.9243083364
27.9242992542
27.9242906211
27.9242821238
27.9242738059
27.924265925
27.9242586627
27.9242520983
27.9242463975
27.9242412963
27.9242368668
27.9242336584
27.9242320691
27.9242319036
27.9242327932
27.9242343247
27.9242357912
27.924236407
27.9242357977
27.9242335849
27.9242296972
27.9242245523
27.924217221
27.9242098874
27.9242041269
27.9242007844
27.9242000379
27.9242019528
27.9242068563
27.9242143864
27.9242234058
27.9242328109
27.9242419583
27.9242511284
27.9242605974
27.9242702847
27.9242799299
27.924288493
27.9242939538
27.9242953264
27.9242927864
27.9242864198
27.9242766784
27.924264849
27.9242526805
27.9242435502
27.9242384847
27.9242376141
27.9242411367
27.924250054
27.9242630842
27.9242783503
27.9242941518
27.9243092994
27.9243229128
27.9243340157
27.9243419541
27.9243464597
27.9237844857
27.9237834315
27.9237799377
27.9237744305
27.9237676117
27.9237600544
27.9237525812
27.9237466209
27.9237407102
27.9237344196
27.9237277935
27.9237210337
27.9237143273
27.9237079539
27.9237024862
27.9236975257
27.9236938599
27.9236921604
27.9236922397
27.9236936748
27.9236963001
27.9236992945
27.9237018212
27.9237029539
27.9237026231
27.9237008159
27.9236972673
27.9236918483
27.923684702
27.9236782241
27.9236735058
27.9236711823
27.9236710224
27.9236732703
27.9236781198
27.9236843441
27.9236909182
27.9236973038
27.923703654
27.9237105091
27.9237178693
27.9237253682
27.9237324228
27.9237377273
27.9237397752
27.9237385524
27.9237339002
27.9237257177
27.9237151213
27.9237029701
27.92369074
27.9236810597
27.9236749572
27.9236728891
27.9236750716
27.9236823404
27.923694454
27.9237095737
27.9237257951
27.9237417921
27.923756509
27.9237685907
27.9237773158
27.9237826381
27.9232551911
27.9232550703
27.9232528485
27.9232486565
27.9232435091
27.9232383173
27.923233676
27.9232301544
27.9232266072
27.9232224574
27.9232176568
27.9232123011
27.923206521
27.9232006746
27.9231955159
27.9231907888
27.9231879084
27.9231870582
27.923187966
27.923190289
27.9231935572
27.9231968338
27.9231993481
27.923200333
27.9231998308
27.9231979376
27.9231942875
27.9231889676
27.923183315
27.9231782947
27.923174896
27.9231736299
27.9231740745
27.9231764993
27.9231808221
27.9231856383
27.9231903834
27.9231951551
27.9232003857
27.9232063653
27.9232127195
27.9232187385
27.9232233827
27.9232252841
27.9232244244
27.9232208251
27.9232141374
27.9232051107
27.923194438
27.9231823593
27.9231698647
27.923158934
27.9231510199
27.9231471305
27.9231474652
27.9231524977
27.9231631599
27.9231776691
27.9231938985
27.9232102415
27.9232252981
27.9232375015
27.9232464758
27.9232525328
27.9227884976
27.9227888227
27.9227873782
27.9227843827
27.9227808565
27.9227777558
27.9227754204
27.9227736049
27.9227715943
27.9227689062
27.9227655467
27.922761466
27.9227566654
27.92275145
27.9227464469
27.9227420746
27.9227397037
27.9227391743
27.9227403002
27.9227427993
27.9227459014
27.9227487357
27.9227506647
27.9227512091
27.9227503165
27.9227478635
27.9227436911
27.9227386842
27.9227343002
27.9227305342
27.9227283574
27.9227279813
27.9227290374
27.9227317911
27.922735655
27.9227394853
27.9227432348
27.9227474497
27.9227525996
27.9227587354
27.9227652908
27.92277134
27.9227755531
27.9227769277
27.9227756561
27.9227717712
27.9227653638
27.9227570975
27.9227472259
27.9227356782
27.9227230339
27.9227109041
27.9227012989
27.9226954647
27.9226941975
27.9226974895
27.9227063359
27.9227194063
27.9227343931
27.9227492839
27.922762528
27.9227728513
27.9227804145
27.9227857874
27.9223944631
27.9223941367
27.9223924968
27.9223899298
27.9223875196
27.9223859559
27.9223850715
27.9223843247
27.9223833517
27.9223816854
27.9223792933
27.9223761103
27.9223720576
27.9223673959
27.9223625239
27.9223586855
27.9223566651
27.9223563184
27.9223574411
27.9223597616
27.92236235
27.9223644942
27.9223657246
27.9223658248
27.9223645007
27.9223613568
27.9223567855
27.9223521784
27.9223484188
27.9223452954
27.9223438859
27.9223440483
27.9223454371
27.9223482965
27.9223516776
27.9223548277
27.9223581443
27.9223624216
27.9223681449
27.9223752853
27.9223832
27.9223908002
27.9223967077
27.9223995677
27.9223996437
27.9223972848
27.9223923045
27.9223851446
27.9223760294
27.9223650242
27.9223524756
27.9223397112
27.922329085
27.9223220916
27.9223200695
27.922322608
27.9223301531
27.9223416936
27.9223548955
27.9223674088
27.9223777256
27.9223850533
27.9223899795
27.922393147
27.922071777
27.9220697564
27.9220668267
27.9220639097
27.9220620182
27.9220614214
27.922061434
27.9220614378
27.9220612559
27.9220604684
27.9220588266
27.9220562779
27.9220527221
27.9220483386
27.9220439437
27.9220406349
27.9220390082
27.9220388749
27.9220399952
27.9220420933
27.9220441212
27.9220455204
27.9220460528
27.9220456288
27.9220437156
27.9220399403
27.9220353149
27.9220311831
27.9220278505
27.9220250386
27.9220239952
27.9220242752
27.9220255718
27.9220279911
27.9220305953
27.9220331102
27.9220362827
27.9220410046
27.9220477666
27.9220565149
27.9220664567
27.9220761632
27.9220841116
27.9220889956
27.9220905092
27.9220892324
27.9220851449
27.9220782044
27.9220690387
27.9220580558
27.9220455657
27.9220327015
27.9220219475
27.9220150819
27.9220132331
27.9220159724
27.9220233952
27.9220342466
27.9220462847
27.9220571767
27.9220652032
27.9220699991
27.9220722653
27.9220726623
27.9218156504
27.9218113583
27.9218067418
27.9218029748
27.9218010945
27.9218008798
27.9218013604
27.9218020233
27.921802545
27.9218025844
27.9218017382
27.9217997849
27.921796626
27.9217926005
27.9217888339
27.921785991
27.9217847671
27.9217848255
27.9217859524
27.9217878428
27.9217893617
27.9217900512
27.9217899797
27.9217889018
27.9217861366
27.9217818693
27.9217774346
27.9217738074
27.9217709608
27.9217684826
27.9217677006
27.9217678408
27.9217686743
27.9217702185
27.9217718062
27.92177369
27.9217768651
27.9217822129
27.921790184
27.9218006357
27.9218124167
27.921823647
27.9218327455
27.9218385819
27.9218406523
27.9218394876
27.9218351066
27.9218275253
27.9218177277
27.9218063731
27.9217939063
27.9217814453
27.9217713352
27.9217655676
27.9217645163
27.9217680053
27.9217761025
27.9217871197
27.9217989777
27.9218093715
27.9218164664
27.9218199235
27.9218205194
27.9218189324
27.9216172943
27.9216109685
27.9216046932
27.9215998802
27.9215975515
27.921597163
27.921597706
27.9215988209
27.9216001255
27.9216009582
27.9216009007
27.9215996989
27.9215971458
27.9215938439
27.921590666
27.9215882375
27.9215872591
27.9215873934
27.9215884578
27.9215900549
27.9215910686
27.9215912455
27.9215906819
27.9215888695
27.9215853131
27.9215808222
27.9215767444
27.9215736196
27.9215712735
27.9215691875
27.9215686255
27.9215685463
27.9215688114
27.9215693936
27.9215700441
27.921571458
27.9215747669
27.9215807706
27.9215898224
27.9216015389
27.9216142778
27.9216258975
27.9216350017
27.9216407074
27.9216426215
27.9216410651
27.921636049
27.9216279377
27.9216177668
27.9216062553
27.9215940332
27.9215823311
27.9215731482
27.9215686596
27.9215683725
27.921572439
27.921581123
27.9215924536
27.9216045165
27.9216149998
27.9216220705
27.9216251677
27.9216252168
27.9216225415
27.921466038
27.9214581382
27.9214504281
27.9214445632
27.9214414488
27.9214405346
27.9214408392
27.9214420577
27.9214438973
27.9214456191
27.9214464305
27.9214460105
27.9214444061
27.9214420364
27.9214395318
27.9214375173
27.9214366742
27.9214367732
27.9214376399
27.9214388213
27.9214393224
27.9214391281
27.921438164
27.9214357292
27.9214317599
27.9214274739
27.9214239453
27.9214213513
27.9214194691
27.9214177408
27.9214173632
27.9214170807
27.9214168891
27.9214168036
27.9214168849
27.9214181275
27.9214217098
27.9214282822
27.9214380514
27.9214502858
27.9214629785
27.9214740899
27.9214825954
27.9214878485
27.9214895401
27.9214878694
27.9214828523
27.9214749566
27.9214650437
27.9214537886
27.9214419716
27.9214309016
27.9214223346
27.9214185322
27.9214184069
27.9214224635
27.9214311156
27.92144238
27.9214545065
27.9214651475
27.9214724157
27.9214755798
27.9214756143
27.9214724841
27.9213547274
27.9213457597
27.921336931
27.9213301383
27.9213261312
27.9213245388
27.9213244101
27.9213254189
27.9213274653
27.9213298153
27.9213314943
27.9213319435
27.9213313186
27.9213299554
27.921328263
27.9213267743
27.9213261184
27.9213261952
27.9213268422
27.9213275581
27.9213276112
27.9213271038
27.9213257727
27.9213230032
27.9213191494
27.9213155116
27.921312734
27.9213107417
27.9213093299
27.9213079209
27.9213077512
27.9213073547
27.9213069329
27.9213066459
27.9213066283
27.9213079886
27.9213118988
27.9213188344
27.92132883
27.9213408534
27.921352835
27.9213631084
27.9213710294
27.9213761243
27.9213779375
27.9213766698
27.9213723455
27.9213651131
27.9213556445
27.9213446298
27.9213329593
27.9213219035
27.9213132782
27.9213092098
27.9213086767
27.9213121553
27.9213202195
27.9213311445
27.9213431787
27.921353915
27.9213613707
27.9213646456
27.9213648153
27.9213617083
27.9212798496
27.9212703736
27.921260842
27.9212533697
27.9212485972
27.9212462555
27.9212456403
27.921246346
27.9212482611
27.9212508134
27.9212531347
27.9212543428
27.921254521
27.9212541005
27.921253287
27.9212524783
27.9212521579
27.9212523643
27.9212529513
27.9212533311
27.9212530598
27.9212523089
27.9212507331
27.9212479748
27.9212446962
27.9212419863
27.9212400598
27.9212387188
27.9212378191
27.921236731
27.9212368201
27.9212364655
27.921236094
27.9212359207
27.9212360989
27.9212377358
27.9212418782
27.9212488877
27.9212586491
27.9212700027
27.9212810774
27.9212906161
27.9212982246
27.9213034936
27.9213056609
27.9213049695
27.9213013909
27.9212945664
27.92128513
27.9212738851
27.9212618228
27.9212501548
27.9212407805
27.9212357719
27.9212347084
27.9212373265
27.9212445916
27.9212551653
27.9212671541
27.9212780651
27.9212857848
27.9212892748
27.921289643
27.9212867889
27.9212370785
27.9212276549
27.9212178699
27.9212100011
27.9212046563
27.9212016315
27.9212005965
27.9212010016
27.9212025843
27.9212049916
27.921207498
27.9212092939
27.9212101842
27.9212105201
27.9212106093
27.9212106172
27.9212108529
27.9212114603
27.9212122477
27.9212125561
27.9212121869
27.92121136
27.9212097917
27.9212074166
27.9212050336
27.921203372
27.9212023292
27.9212016927
27.921201394
27.9212006894
27.9212010596
27.9212008971
27.9212007615
27.9212007975
27.9212011903
27.9212030171
27.9212071636
27.9212139233
27.9212230968
27.9212335696
27.9212437747
27.9212527604
27.9212602036
27.9212656631
27.9212680929
27.9212676933
27.9212643058
27.9212572455
27.9212472299
27.9212352072
27.9212222792
27.9212095728
27.921199019
27.9211929405
27.9211913278
27.921193253
27.9211997404
27.9212100193
27.9212220681
27.9212332881
27.9212414244
27.9212453538
27.9212460169
27.9212435306
27.9212217368
27.9212127241
27.9212029767
27.9211949129
27.9211891915
27.9211856704
27.9211843305
27.9211844774
27.9211857004
27.9211878425
27.9211903081
27.9211924432
27.9211939877
27.9211950844
27.921195946
27.9211967134
27.9211976063
27.9211987655
27.9211998804
27.9212003143
27.921200063
27.921199382
27.9211980669
27.9211962437
27.9211946914
27.9211938666
27.9211935282
27.9211934806
27.9211936983
27.9211933571
27.9211939504
27.9211939964
27.9211940433
27.9211941896
27.9211946458
27.9211964403
27.9212003963
27.9212067641
27.9212153288
27.9212250743
27.9212346372
27.9212432231
27.9212504704
27.9212558862
27.9212583143
27.9212578139
27.9212541208
27.9212465165
27.9212357613
27.9212228865
27.921209059
27.9211952957
27.9211835748
27.9211765191
27.9211743152
27.9211757602
27.9211814929
27.9211913655
27.9212034434
27.9212150596
27.9212238532
27.9212284797
27.9212295755
27.921227536
27.9212253598
27.9212168625
27.9212072796
27.9211990974
27.9211931016
27.9211892153
27.9211876306
27.9211875508
27.9211884933
27.9211904427
27.9211928731
27.9211952799
27.9211974483
27.9211993655
27.9212010945
27.9212027777
27.921204587
27.9212065545
27.9212082688
27.9212092636
27.9212095944
27.9212095795
27.9212090948
27.9212083036
27.9212079318
27.9212082234
27.9212088554
27.9212096687
27.9212105864
27.9212108555
27.921211827
27.9212121807
27.9212123963
27.921212574
27.9212129341
27.9212144785
27.9212179837
27.9212236665
27.9212313145
27.9212400358
27.9212486735
27.9212565306
27.9212631661
27.9212680181
27.9212699824
27.9212688365
27.9212642101
27.9212555778
27.9212437558
27.9212297682
27.9212148283
27.9211998981
27.9211870361
27.921179029
27.9211762442
27.9211772501
27.9211824513
27.9211918936
27.92120388
27.9212157641
27.9212251231
27.9212304566