/*--------------------------------*- C++ -*----------------------------------*\
  =========                 |
  \\      /  F ield         | OpenFOAM: The Open Source CFD Toolbox
   \\    /   O peration     | Website:  https://openfoam.org
    \\  /    A nd           | Version:  6
     \\/     M anipulation  |
\*---------------------------------------------------------------------------*/
FoamFile
{
    version     2.0;
    format      ascii;
    class       volScalarField;
    location    "4e-08";
    object      T;
}
// * * * * * * * * * * * * * * * * * * * * * * * * * * * * * * * * * * * * * //

dimensions      [0 0 0 1 0 0 0];

internalField   nonuniform List<scalar> 
12288
(
592.915374631
592.915345194
592.915314679
592.915284831
592.915257262
592.915232186
592.915209252
592.915188542
592.915170331
592.915154605
592.915140432
592.915127315
592.915115078
592.915104084
592.91509453
592.915085426
592.915076199
592.915067121
592.915058094
592.915048118
592.915036279
592.915022339
592.915005925
592.914986242
592.914962983
592.914937028
592.91490927
592.914880682
592.914852381
592.914825831
592.914802624
592.914784406
592.914772727
592.914767762
592.914770806
592.91478258
592.914803526
592.914832593
592.91486926
592.914913398
592.914964089
592.915019474
592.915077202
592.915135159
592.915191683
592.915244708
592.915291
592.915330699
592.915365793
592.915394831
592.915418771
592.9154386
592.915455071
592.915468356
592.915478204
592.91548491
592.91548833
592.915488555
592.915485441
592.915477992
592.915465638
592.91544846
592.915427002
592.915402113
592.912904387
592.912862974
592.912824667
592.912790714
592.912762028
592.912738797
592.912720021
592.912705769
592.912697246
592.912692542
592.912689355
592.912686508
592.912684515
592.912683839
592.912685057
592.912685494
592.912687242
592.912691045
592.91269632
592.912702328
592.912707798
592.912712226
592.912714951
592.912715199
592.912709787
592.912696556
592.912675206
592.912645578
592.912610154
592.912569111
592.912524178
592.912478087
592.912434281
592.912395764
592.912364609
592.912343853
592.912335358
592.912337587
592.912350218
592.912377232
592.912420143
592.912478202
592.912548193
592.912626005
592.912707759
592.912789952
592.91286806
592.912938126
592.912998569
592.913049112
592.913089097
592.913119229
592.913140677
592.913154658
592.913161138
592.913161169
592.913155037
592.913141671
592.913121997
592.913096283
592.913064882
592.91302875
592.91298905
592.912947067
592.91154735
592.911493371
592.911445543
592.911405726
592.911375288
592.911354161
592.911341012
592.911334935
592.911333854
592.911337958
592.911346298
592.91135618
592.911366784
592.911378896
592.911390712
592.911401483
592.911413117
592.911424983
592.911437109
592.911449558
592.911460817
592.911468862
592.91147335
592.911475396
592.911472818
592.911461885
592.911440707
592.911407254
592.911364021
592.911311885
592.911251704
592.911186715
592.911120646
592.911057734
592.911001536
592.910955298
592.910925391
592.910915193
592.910919046
592.910938168
592.910978385
592.911040688
592.911123228
592.911222146
592.911332135
592.911447492
592.911561238
592.911665811
592.911757167
592.911833703
592.911894153
592.911938209
592.911966265
592.911980037
592.911982885
592.911974379
592.91195383
592.911923803
592.911885327
592.911838629
592.91178523
592.911727028
592.911666291
592.911605633
592.910190853
592.910136458
592.910089131
592.91005005
592.910019839
592.909998264
592.909983624
592.909973769
592.909968043
592.909966178
592.909968055
592.90997217
592.909977171
592.90998287
592.909989058
592.909996072
592.910002738
592.910009508
592.910015619
592.910019704
592.910021177
592.91001978
592.910015504
592.910008938
592.909999365
592.909985146
592.909964831
592.909937053
592.909900074
592.909854537
592.909802813
592.909746211
592.909687278
592.909629592
592.909576717
592.909532188
592.909503483
592.909494497
592.90950121
592.909523622
592.909563675
592.909623181
592.90970408
592.909805615
592.909922919
592.910048758
592.910174944
592.910293613
592.910399264
592.910488678
592.910559934
592.910612595
592.910646817
592.910662074
592.910663176
592.910651765
592.910627107
592.910591959
592.910546981
592.910494141
592.910436137
592.910374998
592.910312463
592.910250345
592.907678464
592.907635178
592.907596925
592.907563985
592.907536298
592.907513164
592.907492925
592.907473758
592.907454956
592.90743685
592.9074197
592.907403291
592.907387474
592.907372619
592.907359516
592.907348479
592.90734016
592.907331551
592.907322274
592.907311484
592.907298839
592.90728458
592.907269361
592.907253686
592.907237597
592.9072206
592.907201894
592.907180531
592.907155443
592.907125572
592.907090623
592.907051862
592.907010515
592.906968618
592.906928743
592.906893541
592.906868876
592.906859537
592.90686387
592.906881431
592.906913111
592.906959404
592.907022672
592.907104777
592.907205958
592.907319038
592.907433292
592.907546435
592.90765312
592.907749083
592.907831251
592.907897555
592.907947192
592.907980064
592.907995583
592.907998109
592.90798976
592.907970342
592.907942302
592.907907537
592.907867198
592.90782229
592.907774432
592.907725656
592.904778988
592.90474549
592.904713325
592.904682395
592.90465231
592.904622478
592.904592084
592.904560224
592.904526323
592.904490344
592.904452685
592.904413998
592.904375182
592.904337298
592.904301021
592.90426642
592.904233814
592.904202788
592.904171566
592.9041403
592.904109621
592.904080381
592.904053443
592.904029533
592.904008985
592.903991688
592.903977204
592.903964828
592.903953667
592.903942716
592.903930477
592.903914475
592.903895834
592.903874869
592.903852742
592.903830502
592.903810912
592.903799894
592.90379804
592.903805841
592.903825313
592.903856312
592.903900157
592.90395765
592.90403082
592.904124503
592.904215928
592.90431472
592.904416169
592.904515678
592.90460944
592.904693889
592.904766082
592.904824798
592.904869979
592.904900855
592.904917753
592.904924483
592.904923939
592.904916328
592.90490047
592.904876603
592.904846706
592.904813291
592.902773345
592.902736459
592.902696457
592.902654242
592.902610568
592.902566023
592.902520881
592.902475171
592.902428794
592.902381658
592.902333742
592.902285184
592.90223635
592.902187571
592.902138697
592.902089064
592.902038412
592.901987057
592.901935335
592.901883923
592.901833949
592.901786786
592.901743966
592.90170694
592.901676806
592.901654034
592.901638648
592.901630545
592.901628431
592.901630358
592.901636417
592.90164389
592.901648114
592.901651687
592.901652029
592.901649366
592.901643575
592.901639299
592.901639983
592.901648083
592.901666107
592.901693828
592.90173214
592.901782227
592.901845207
592.901923362
592.902012387
592.902104252
592.902202777
592.902304527
592.902405686
592.902502301
592.902590509
592.902667312
592.90273149
592.902782948
592.902821222
592.902846343
592.902860731
592.902867429
592.902866631
592.902855466
592.902834279
592.902806273
592.901830277
592.901772374
592.901708323
592.901640598
592.90157191
592.901504412
592.901439719
592.90137908
592.901323007
592.901271373
592.901223486
592.901178416
592.901134973
592.901091418
592.901045975
592.900997376
592.900944899
592.900888198
592.900827593
592.900764345
592.900700519
592.900638175
592.900579282
592.900525706
592.900479472
592.900442608
592.90041678
592.900403323
592.900400073
592.900406382
592.900424347
592.900451316
592.900482461
592.900513792
592.900543612
592.900569169
592.900590033
592.900607195
592.900624783
592.900647197
592.900677125
592.900715931
592.900764215
592.900822701
592.900892019
592.900972262
592.90106651
592.90116477
592.901266956
592.901372805
592.901479415
592.901582744
592.901678708
592.901763505
592.901834913
592.90189239
592.9019351
592.901961711
592.901974089
592.901977547
592.901971583
592.901952573
592.901921495
592.901880318
592.902811063
592.902749539
592.90267784
592.902599679
592.902519092
592.902439701
592.902364594
592.902296064
592.902235361
592.902182538
592.902136277
592.9020942
592.902053784
592.902012833
592.901969358
592.901921634
592.90186841
592.901809047
592.90174359
592.901672864
592.901598671
592.901523111
592.901448427
592.901377245
592.901312762
592.901257828
592.90121426
592.90118416
592.901170322
592.901169323
592.901181147
592.901208403
592.901247276
592.901293464
592.901342655
592.901390937
592.901437436
592.901483293
592.901529042
592.901577318
592.901630692
592.901690326
592.901755941
592.901826735
592.901901781
592.901979696
592.902060554
592.902150243
592.902230148
592.902315651
592.90240298
592.902489786
592.902573538
592.902651349
592.902721344
592.902782122
592.902831098
592.902867204
592.902893195
592.902910748
592.902918619
592.902913924
592.902894383
592.902859784
592.904488639
592.904439091
592.904375042
592.904301395
592.904223158
592.904144936
592.904070561
592.904002672
592.903942171
592.903888219
592.903838842
592.903791708
592.903744536
592.903695112
592.903641438
592.903581947
592.90351566
592.90344232
592.903362559
592.903278039
592.90319121
592.903104162
592.903018827
592.902937831
592.902864472
592.902801498
592.902749956
592.902710476
592.902685962
592.902676871
592.902679571
592.902693886
592.902721152
592.902759039
592.902804568
592.902854989
592.902909279
592.90296843
592.903031713
592.90309951
592.903171838
592.903247224
592.903323337
592.903397498
592.903466501
592.903526672
592.90358295
592.903645384
592.903687739
592.903739024
592.903799711
592.903867922
592.903942704
592.904021806
592.904103058
592.904184035
592.904260398
592.904329393
592.904391411
592.904446583
592.904491542
592.904518854
592.904529262
592.904519248
592.906855719
592.906822763
592.906770533
592.906706086
592.90663506
592.906562265
592.906491395
592.906424583
592.906362229
592.906303358
592.906246224
592.906188753
592.906128767
592.906064236
592.905993674
592.905916415
592.905832614
592.90574296
592.905648931
592.905555014
592.905465382
592.90538144
592.905304144
592.905235083
592.905176159
592.905128628
592.905091979
592.905064412
592.905045595
592.905036607
592.905034501
592.905037203
592.90504531
592.905058618
592.905077523
592.905103288
592.905137857
592.905183111
592.905238879
592.90530432
592.905377349
592.905454347
592.905530725
592.905601504
592.905661939
592.905709042
592.905750402
592.905787591
592.905805282
592.905833537
592.905873927
592.90592848
592.905998879
592.906083945
592.906180965
592.9062864
592.906394549
592.906499327
592.90659704
592.906686689
592.906764824
592.906821434
592.906855347
592.906864486
592.910120991
592.910092612
592.910041819
592.909976196
592.909902158
592.909824765
592.9097477
592.909673132
592.909601707
592.909532709
592.909464462
592.909394905
592.909322101
592.909244712
592.909162494
592.909076285
592.908986658
592.908895044
592.908804412
592.908723311
592.908652478
592.908590234
592.90853731
592.908494138
592.90846074
592.908437296
592.908423208
592.908416433
592.908414489
592.908415964
592.908419619
592.908424754
592.908430954
592.90843566
592.908439558
592.908444923
592.908455496
592.908474451
592.908503627
592.908544058
592.908595719
592.908656881
592.908723849
592.908791407
592.908853542
592.90890556
592.908952207
592.908988812
592.909008173
592.909034108
592.909068282
592.909115183
592.909179568
592.909263499
592.90936549
592.909481031
592.909602996
592.909722314
592.909831985
592.909929944
592.910013822
592.910076174
592.91011055
592.910125765
592.913537562
592.913506751
592.91345218
592.913381566
592.913301873
592.913218682
592.913136028
592.9130561
592.912979112
592.912903649
592.912827611
592.912749414
592.912668826
592.912586851
592.912504841
592.912422954
592.912344845
592.912273034
592.912214183
592.912168081
592.912127918
592.912091137
592.912058559
592.912029853
592.912004827
592.911985418
592.911974512
592.911971611
592.91197513
592.911983836
592.911996081
592.912012819
592.912033862
592.912054018
592.912070056
592.912080127
592.912085281
592.912089141
592.912095247
592.912107709
592.912131081
592.912167879
592.912216998
592.912273891
592.912331757
592.912384788
592.912436309
592.912478631
592.912499809
592.912523894
592.912553318
592.912591594
592.912645492
592.912720214
592.912815921
592.912927616
592.913046902
592.913163532
592.913269843
592.913363832
592.913443894
592.913501405
592.913531014
592.913543981
592.915421556
592.915397199
592.915346165
592.915277401
592.91519904
592.915117688
592.915037969
592.914961826
592.914888479
592.914815627
592.914741291
592.914665091
592.914588293
592.914513236
592.914443682
592.91437941
592.914328034
592.914292034
592.914268269
592.91424837
592.914225583
592.914198534
592.914167685
592.914132914
592.914095811
592.914060902
592.914032441
592.914012823
592.914002327
592.913998445
592.914001661
592.914015373
592.914033259
592.914058327
592.914086865
592.914113773
592.914136432
592.914157476
592.914180587
592.914207947
592.91424031
592.914276238
592.914310883
592.914339239
592.914358555
592.914368952
592.914379006
592.91438745
592.914378375
592.914381252
592.914395715
592.914422452
592.914467471
592.914535497
592.914626504
592.914736049
592.914856436
592.914977805
592.915091883
592.915195442
592.91528647
592.915356239
592.915399629
592.915421571
592.915368779
592.915352608
592.915308917
592.915244888
592.915169576
592.915090434
592.915012668
592.914938465
592.914867203
592.914797114
592.914726942
592.914656664
592.914587652
592.914522864
592.914464892
592.914417589
592.914385057
592.914363996
592.914347907
592.914329766
592.914305958
592.914276484
592.914242057
592.914202997
592.914161012
592.9141197
592.914082069
592.914050175
592.914025443
592.914008401
592.913998946
592.913993363
592.913993698
592.91400506
592.914029309
592.9140657
592.914109793
592.914160584
592.914221828
592.914289965
592.914354593
592.914407311
592.914437291
592.914440697
592.9144224
592.91438888
592.914349095
592.914312277
592.914273482
592.914254068
592.914250393
592.914262053
592.91429748
592.914359156
592.914446286
592.914555685
592.91468111
592.914813231
592.914942689
592.915064304
592.915174017
592.915263568
592.915327183
592.915360914
592.913961991
592.913949304
592.913911203
592.913851597
592.913777734
592.913696832
592.91361459
592.913534372
592.913457387
592.913383604
592.913312728
592.913245017
592.913181512
592.913123864
592.913073495
592.913032728
592.913000591
592.91297346
592.912948281
592.912921945
592.912893394
592.912863514
592.912832782
592.912800911
592.912768018
592.912734948
592.912702214
592.912670492
592.912641881
592.912617785
592.912596537
592.912575043
592.912562302
592.912560015
592.912574523
592.912613932
592.912674952
592.912753881
592.912853254
592.912957105
592.913051126
592.91312374
592.913160683
592.913163839
592.913139859
592.913092875
592.913034061
592.912971475
592.912914484
592.912872184
592.912848678
592.912837474
592.912849871
592.912893377
592.91296814
592.913070879
592.913195812
592.913333626
592.913473331
592.913607129
592.913730266
592.91383396
592.913908736
592.913949586
592.911600109
592.9115888
592.911553887
592.911497761
592.911426061
592.911344907
592.911260126
592.911176147
592.911095654
592.911019733
592.910948909
592.910883903
592.910825565
592.910774449
592.91073055
592.91069418
592.910662377
592.910631823
592.910601662
592.910571346
592.910541636
592.910513827
592.910487809
592.910462583
592.910437096
592.910410369
592.910381419
592.910349676
592.910317456
592.910287914
592.910254372
592.910222867
592.910201443
592.910194486
592.910208219
592.910250663
592.910324499
592.91042931
592.910555076
592.910680088
592.910791723
592.910878876
592.910928504
592.91094048
592.910921886
592.910877058
592.910814317
592.910740581
592.910667378
592.910603146
592.910553677
592.910521345
592.910512705
592.910534285
592.91059443
592.910688791
592.91080973
592.910947379
592.911090075
592.911228549
592.911356802
592.91146488
592.91154258
592.911586406
592.908873452
592.908861131
592.908826427
592.908770919
592.908699259
592.908615521
592.908524588
592.908432175
592.908343252
592.908260419
592.908184841
592.908117548
592.908059184
592.908009105
592.907965526
592.907926212
592.907887838
592.907848966
592.907812417
592.907780183
592.907753696
592.907733046
592.907716408
592.907700884
592.907683604
592.907661924
592.907633577
592.907597196
592.907558081
592.907515276
592.907468141
592.907430996
592.907411619
592.907411713
592.907435695
592.907491527
592.907582025
592.907703544
592.907834943
592.907959102
592.908070311
592.908163485
592.908232151
592.90827025
592.908280232
592.908265246
592.908225463
592.908164411
592.908088692
592.908008283
592.907930711
592.907871951
592.907843193
592.907847837
592.90789234
592.907980119
592.908098623
592.908235262
592.908377578
592.908515834
592.908641955
592.908745161
592.908818761
592.90886093
592.905015953
592.905002254
592.904966751
592.904911662
592.904840175
592.904757785
592.904667467
592.904576258
592.904488848
592.904406203
592.904329135
592.904259461
592.90419831
592.904144898
592.904097531
592.904054735
592.904014085
592.90397688
592.90394777
592.903927869
592.903916671
592.903912038
592.903909928
592.903905491
592.903894799
592.903874478
592.903842674
592.903801281
592.903752528
592.903694925
592.903643845
592.903609728
592.903597502
592.903607277
592.903642053
592.903707478
592.903798937
592.903906133
592.904014249
592.904117634
592.904216442
592.904309482
592.904394253
592.904464016
592.904506164
592.904516614
592.904497373
592.904447052
592.904368939
592.904274766
592.904177669
592.904104093
592.904065056
592.90406177
592.904097025
592.904178779
592.904292924
592.90442441
592.904560158
592.904690214
592.904806247
592.904899903
592.90496697
592.905005475
592.900402566
592.900389132
592.900354183
592.900301975
592.900235681
592.900158454
592.900080077
592.900005721
592.899934592
592.899864092
592.899794708
592.899728668
592.899667503
592.899611855
592.899563189
592.899519842
592.899482547
592.899455933
592.899443164
592.899442265
592.899450307
592.899463766
592.899476446
592.899481768
592.899476797
592.899458581
592.899426487
592.899383239
592.899322027
592.899261698
592.899215119
592.899188665
592.899183123
592.899199925
592.899241858
592.899304788
592.899379062
592.899455827
592.899530654
592.899606136
592.899684344
592.899764502
592.899844138
592.899914085
592.899957943
592.899968412
592.899945906
592.89989113
592.899808282
592.899707925
592.899606234
592.899529697
592.899486478
592.89947867
592.899507794
592.899581542
592.899690075
592.89981789
592.899950818
592.900078623
592.900193241
592.900286381
592.900353298
592.900391886
592.895678796
592.895670614
592.895642395
592.895597523
592.895541846
592.89548048
592.895420524
592.895372264
592.895323956
592.895272154
592.895217227
592.895160854
592.895104612
592.895050703
592.895003912
592.894962074
592.89493141
592.894917256
592.894917893
592.894929957
592.894951905
592.894976792
592.894997645
592.895007018
592.895004307
592.894989412
592.894960035
592.894914826
592.8948565
592.894804143
592.894766484
592.894748328
592.894747557
592.894766926
592.894807722
592.894859136
592.894912837
592.894965056
592.895017601
592.895074651
592.895135868
592.895197937
592.895255308
592.895296773
592.895311578
592.895299619
592.895258946
592.895189304
592.895099864
592.894997712
592.894895498
592.894814009
592.894761727
592.894743786
592.89476125
592.894820659
592.894921065
592.895047559
592.895184186
592.895319304
592.895443099
592.895544208
592.895617486
592.895662729
592.89125882
592.891258517
592.891240809
592.891207045
592.89116566
592.891124339
592.891087937
592.89105999
592.891031094
592.890997008
592.890957353
592.890912833
592.890864464
592.89081496
592.890770643
592.890731003
592.890706747
592.890699334
592.890706505
592.890725425
592.890752011
592.890778585
592.890798872
592.890806857
592.890802594
592.890786648
592.890756143
592.890712298
592.890666839
592.890626955
592.890600403
592.890590747
592.890595119
592.890616028
592.890652074
592.890691652
592.890730465
592.890769958
592.890813901
592.890864252
592.890917638
592.890967776
592.891005273
592.891019654
592.891011167
592.890979876
592.890923308
592.890847687
592.890758365
592.890657221
592.890552479
592.890460314
592.89039284
592.890359598
592.890361357
592.890402041
592.890489914
592.890610875
592.890747111
592.890884328
592.891009822
592.891110973
592.891185526
592.891236183
592.88737383
592.887376759
592.887364973
592.887341074
592.887313376
592.887289443
592.887271719
592.88725777
592.8872415
592.887219386
592.887191564
592.88715757
592.88711725
592.887072852
592.887029953
592.8869933
592.886973076
592.886968206
592.886977027
592.886997011
592.887021802
592.887044381
592.887059692
592.887063998
592.887056392
592.887035579
592.887000795
592.886959954
592.886924866
592.886895333
592.886878869
592.886876451
592.886885935
592.886909529
592.886941621
592.88697308
592.887003954
592.887039188
592.887082775
592.887134845
592.887190473
592.887241534
592.887276766
592.887288333
592.887277804
592.887245464
592.887192458
592.887123944
592.887041648
592.886944996
592.886838858
592.886736861
592.886655559
592.886605797
592.886594441
592.886621185
592.886693762
592.886802285
592.886927501
592.887051616
592.887160876
592.887245467
592.887307312
592.887351241
592.884099369
592.884096089
592.884082056
592.884061361
592.884042791
592.884031314
592.884025135
592.884019798
592.884012099
592.883998367
592.883978433
592.883951703
592.883917338
592.883877369
592.883835979
592.883803654
592.883786275
592.883782922
592.883791677
592.883809979
592.883830343
592.883847114
592.883856656
592.883857227
592.88384591
592.883819418
592.883781729
592.883744484
592.883714521
592.883690273
592.883679909
592.883681831
592.883693973
592.883718064
592.883745917
592.883771769
592.883799289
592.883835298
592.883883934
592.883944794
592.884012247
592.884076783
592.884126889
592.884151747
592.884153168
592.884134087
592.884093287
592.884033924
592.883957717
592.88386531
592.883759797
592.883652629
592.88356318
592.883504212
592.883486863
592.883507802
592.883570116
592.883666011
592.88377622
592.883880438
592.88396526
592.884024852
592.884064327
592.884089202
592.881421893
592.881403661
592.88137849
592.881354547
592.881339923
592.881335946
592.881336704
592.881337365
592.881336253
592.881329784
592.881316032
592.881294426
592.881263995
592.881226488
592.881189347
592.881161396
592.881147254
592.881145693
592.881154438
592.881170804
592.881186495
592.88119714
592.881201045
592.881197085
592.881180648
592.881149174
592.88111146
592.881078351
592.881052096
592.881030596
592.881023095
592.881025862
592.881037013
592.881056981
592.881078125
592.881098729
592.881125245
592.881165183
592.881222695
592.88129716
592.881381539
592.881463474
592.881530427
592.881571982
592.881585198
592.881574882
592.881540993
592.881482985
592.881405911
592.881313243
592.881207937
592.881100041
592.881010083
592.880952749
592.880937222
592.880960331
592.881022339
592.88111296
592.881213906
592.88130523
592.881371741
592.881410899
592.881428499
592.881430592
592.87929991
592.879262643
592.879223311
592.879192095
592.879177052
592.879175494
592.879179599
592.879185482
592.879190166
592.879190599
592.879183469
592.879166806
592.879139838
592.879105755
592.879073933
592.879049863
592.879038998
592.87903899
592.879047733
592.879062266
592.87907375
592.879078744
592.879077756
592.879068195
592.879044648
592.879009438
592.878973628
592.878944836
592.87892278
592.878904239
592.878898859
592.878900373
592.878907445
592.878919855
592.878932486
592.878947964
592.878974701
592.879020039
592.879087693
592.879176155
592.879275285
592.879369148
592.879444901
592.879493651
592.879511148
592.879501428
592.879464601
592.879401065
592.879318653
592.879222787
592.879117624
592.879013234
592.87892912
592.878881194
592.878872556
592.8789021
592.878969894
592.879062129
592.879161962
592.879249657
592.879309092
592.87933792
592.879342733
592.879328708
592.877658254
592.877604262
592.877551225
592.877511153
592.877491701
592.877488123
592.877492291
592.877501443
592.877512428
592.877519526
592.877519022
592.877508718
592.877487211
592.877459526
592.877432799
592.877412169
592.877403396
592.877403898
592.877411905
592.877423841
592.877431132
592.877432135
592.877427068
592.877411323
592.87738151
592.877344903
592.877312327
592.877287825
592.877270017
592.877254779
592.877251214
592.877250808
592.877252999
592.877257452
592.877262475
592.877274286
592.877302362
592.877353288
592.877429823
592.877528278
592.877634497
592.877730738
592.877805851
592.87785306
592.877869132
592.87785616
592.877814226
592.877746664
592.877661566
592.877564735
592.87746182
592.877363801
592.877287522
592.877249953
592.877247585
592.877281675
592.877353878
592.877448488
592.877549981
592.87763849
592.877698078
592.877724667
592.877725464
592.877702872
592.87640852
592.876341784
592.876277017
592.876228062
592.876201584
592.876193291
592.876195072
592.876204543
592.876219611
592.876233951
592.876240784
592.876237237
592.876223856
592.876204211
592.876183381
592.876166305
592.876158739
592.876158899
592.876165087
592.876173365
592.876176462
592.876174401
592.876165874
592.876145084
592.876112342
592.876077929
592.876050172
592.876030217
592.876016342
592.876004055
592.87600191
592.87599979
592.875998202
592.87599736
592.875997998
592.876008692
592.876039247
592.876094936
592.876177158
592.876279247
592.876384309
592.876475817
592.876545744
592.876589279
592.876603668
592.876590078
592.876548739
592.876483508
592.876400974
592.876306599
592.876207181
592.876114243
592.876042772
592.876010204
592.876008841
592.87604234
592.876113587
592.87620729
592.876309034
592.876398686
592.87646009
592.876487367
592.876488284
592.876462523
592.875493712
592.875418602
592.875344816
592.875288137
592.875254119
592.875239835
592.875237759
592.875245168
592.875261471
592.875280686
592.875294679
592.875298505
592.875293332
592.875282194
592.87526837
592.875255873
592.875250007
592.875250075
592.875254425
592.875258742
592.875258168
592.875253435
592.875241729
592.875218408
592.875187173
592.875158554
592.875137245
592.875122434
592.875112554
592.875102913
592.875102423
592.875099446
592.875096085
592.875093842
592.875094048
592.875106008
592.875139367
592.87519796
592.875281658
592.875381392
592.87548013
592.875564606
592.87562985
592.87567235
592.875687948
592.875678044
592.87564284
592.875583226
592.875504327
592.875411869
592.875313519
592.875220393
592.875147781
592.875112362
592.875107333
592.875135566
592.875201439
592.875292115
592.875392906
592.875483231
592.875546321
592.875574707
592.875576778
592.875551503
592.874885336
592.87480671
592.874727468
592.874665302
592.874624925
592.874604082
592.874597923
592.874602734
592.874617503
592.87463796
592.874656894
592.874667052
592.874668701
592.874665434
592.874659109
592.87465258
592.874649769
592.874651242
592.874655213
592.874656998
592.874653818
592.874646999
592.874633388
592.874610574
592.874584664
592.874564073
592.874550023
592.874540805
592.874535342
592.874528411
592.874529998
592.874527539
592.874524796
592.874523623
592.874525714
592.874540101
592.874575272
592.874634201
592.874715489
592.87480922
592.874900277
592.874978778
592.875041611
592.875085586
592.875104105
592.875098993
592.8750697
592.875012968
592.87493377
592.874838951
592.874736989
592.874638284
592.874558674
592.874515165
592.874505569
592.874526478
592.874585468
592.874673123
592.874773527
592.874865351
592.874930873
592.87496139
592.874965169
592.874942132
592.874546905
592.874469516
592.874388646
592.874323383
592.874278264
592.874251695
592.874242085
592.874244381
592.874256142
592.874275033
592.874295162
592.874310074
592.87431785
592.874321138
592.874322438
592.874322983
592.87432517
592.874330335
592.87433618
592.87433768
592.874333941
592.874326663
592.874313428
592.874294254
592.874276053
592.874264203
592.874257484
592.8742542
592.874253892
592.874250092
592.874253828
592.874253067
592.874252301
592.874252908
592.874256755
592.874272539
592.874307527
592.8743641
592.874440212
592.87452651
592.874610472
592.874684531
592.874745932
592.874791153
592.874811601
592.874808517
592.874780068
592.874720746
592.874636288
592.874534729
592.874425345
592.874317593
592.874227697
592.874175203
592.874160743
592.874175886
592.8742282
592.874313107
592.874413909
592.874508436
592.874577898
592.87461251
592.87461894
592.874599114
592.87443208
592.874358246
592.874278014
592.874211381
592.874163413
592.874133142
592.874121248
592.874121501
592.874130401
592.874147152
592.874166842
592.874184258
592.87419726
592.874206572
592.874214019
592.874220603
592.874228277
592.87423791
592.874246486
592.87424926
592.874246686
592.874240793
592.874229901
592.874215538
592.874204188
592.874199136
592.87419823
592.874199842
592.874203822
592.874202982
592.874208592
592.874209566
592.874210313
592.874211767
592.874215957
592.87423131
592.87426455
592.874317679
592.87438858
592.874468819
592.874547588
592.874618348
592.874677899
592.874722382
592.874742571
592.874738246
592.874706742
592.874642644
592.87455216
592.874443776
592.874327261
592.874211284
592.874112332
592.87405227
592.87403311
592.874044499
592.874091022
592.874172635
592.874273428
592.874370857
592.874445354
592.874485527
592.874495274
592.874478992
592.874471734
592.874402505
592.874323904
592.874256308
592.874206011
592.874172756
592.874158689
592.874157062
592.874163674
592.874178746
592.874198148
592.874217894
592.874236233
592.874252636
592.874267607
592.874282157
592.874297808
592.874314437
592.874328355
592.874336127
592.874338788
592.874338818
592.874335131
592.874329642
592.874328172
592.87433238
592.874339553
592.874348386
592.874358175
592.874362622
592.874371457
592.874374953
592.874377139
592.874378906
592.874382391
592.87439575
592.874425291
592.874472732
592.874536
592.874607728
592.874678805
592.874743415
592.874797683
592.874837209
592.874853345
592.874843282
592.874803537
592.874730526
592.874630849
592.874512897
592.874386807
592.874260838
592.874152114
592.874083706
592.8740593
592.874066741
592.874108642
592.874186269
592.874285904
592.874385416
592.874464704
592.874510898