/*--------------------------------*- C++ -*----------------------------------*\
  =========                 |
  \\      /  F ield         | OpenFOAM: The Open Source CFD Toolbox
   \\    /   O peration     | Website:  https://openfoam.org
    \\  /    A nd           | Version:  6
     \\/     M anipulation  |
\*---------------------------------------------------------------------------*/
FoamFile
{
    version     2.0;
    format      ascii;
    class       volVectorField;
    location    "4e-08";
    object      U;
}
// * * * * * * * * * * * * * * * * * * * * * * * * * * * * * * * * * * * * * //

dimensions      [0 1 -1 0 0 0 0];

internalField   nonuniform List<vector> 
12288
(
(-87.6794363409 0 0.467876998259)
(-87.6794492127 0 0.467898913871)
(-87.6794588232 0 0.467921969861)
(-87.6794670232 0 0.467944828051)
(-87.6794769825 0 0.467966514847)
(-87.6794897422 0 0.467986692006)
(-87.6795043589 0 0.468005230765)
(-87.6795210689 0 0.468021655781)
(-87.6795400384 0 0.468035180278)
(-87.6795606546 0 0.468045263362)
(-87.6795822133 0 0.468051117203)
(-87.6796029457 0 0.468053061077)
(-87.6796211116 0 0.468051382805)
(-87.6796357446 0 0.468045984146)
(-87.6796467679 0 0.468036033415)
(-87.6796544588 0 0.468021533502)
(-87.6796599972 0 0.468002619359)
(-87.6796632249 0 0.467978822619)
(-87.6796653506 0 0.467951302319)
(-87.6796690451 0 0.467921213073)
(-87.6796757048 0 0.467888934586)
(-87.6796861978 0 0.467855978147)
(-87.6797012058 0 0.467826025176)
(-87.6797215804 0 0.467803432739)
(-87.6797466987 0 0.46779102885)
(-87.6797753285 0 0.467790788156)
(-87.6798049133 0 0.467802684708)
(-87.6798333572 0 0.467824966672)
(-87.6798585706 0 0.467855042191)
(-87.6798773392 0 0.467889747814)
(-87.6798862928 0 0.467925728545)
(-87.6798842779 0 0.467959802186)
(-87.6798682307 0 0.467989358907)
(-87.679837367 0 0.468012644636)
(-87.6797929326 0 0.468028395165)
(-87.6797341987 0 0.468035061031)
(-87.6796612963 0 0.468032507048)
(-87.6795774466 0 0.468021107602)
(-87.679485798 0 0.468001415911)
(-87.6793884416 0 0.467975377451)
(-87.6792887424 0 0.467945449027)
(-87.6791917708 0 0.467913473576)
(-87.6791027279 0 0.467881073227)
(-87.679025475 0 0.467850231237)
(-87.6789625223 0 0.467822688363)
(-87.6789162474 0 0.467800671043)
(-87.6788893748 0 0.467784428708)
(-87.6788803897 0 0.467770634392)
(-87.6788864169 0 0.467762436656)
(-87.6789045766 0 0.467757440832)
(-87.6789320341 0 0.467755102039)
(-87.6789660477 0 0.467754765316)
(-87.6790048206 0 0.467755925636)
(-87.6790475817 0 0.46775810007)
(-87.679093415 0 0.467761500827)
(-87.6791403586 0 0.467765973538)
(-87.6791868466 0 0.467771028396)
(-87.6792321771 0 0.46777715767)
(-87.679275181 0 0.46778499479)
(-87.6793141842 0 0.467794973905)
(-87.6793480678 0 0.467807311314)
(-87.6793766294 0 0.467821802883)
(-87.6794003647 0 0.467838316532)
(-87.6794200718 0 0.467856760274)
(-87.6799388913 0 0.471576216848)
(-87.6799532834 0 0.471612310405)
(-87.6799717634 0 0.471645938504)
(-87.6799950409 0 0.471676470261)
(-87.6800236039 0 0.471703558604)
(-87.6800574435 0 0.471727015703)
(-87.6800948311 0 0.471746701593)
(-87.6801324748 0 0.471763054826)
(-87.6801697348 0 0.471776476328)
(-87.6802061837 0 0.471786392241)
(-87.6802384741 0 0.471792140276)
(-87.6802632096 0 0.471794862608)
(-87.6802794152 0 0.471794437568)
(-87.6802867066 0 0.471790189965)
(-87.6802846403 0 0.471781319413)
(-87.6802713965 0 0.471768513419)
(-87.6802515249 0 0.47174887002)
(-87.6802273118 0 0.471720069636)
(-87.6801967021 0 0.471683806644)
(-87.6801632037 0 0.471641088526)
(-87.6801301393 0 0.471593461048)
(-87.6800975021 0 0.47154379256)
(-87.6800663931 0 0.471495820998)
(-87.6800398523 0 0.471453983686)
(-87.6800205368 0 0.471423621414)
(-87.6800111068 0 0.471408358256)
(-87.6800140717 0 0.471406316509)
(-87.6800272013 0 0.471416845054)
(-87.6800494394 0 0.471441158742)
(-87.6800809683 0 0.471475100377)
(-87.6801193373 0 0.471513773608)
(-87.6801605662 0 0.471553577074)
(-87.6801990329 0 0.471592329516)
(-87.6802318241 0 0.471627215112)
(-87.6802569252 0 0.471655508444)
(-87.6802690729 0 0.471675326141)
(-87.6802656646 0 0.471685038726)
(-87.6802525651 0 0.471684828009)
(-87.6802329636 0 0.471674183167)
(-87.6802026029 0 0.471653659039)
(-87.6801579904 0 0.471624357861)
(-87.680102229 0 0.471586958637)
(-87.680040185 0 0.471543442747)
(-87.6799764169 0 0.471496553722)
(-87.6799141816 0 0.471449568937)
(-87.6798568603 0 0.471405417164)
(-87.6798123942 0 0.471363915673)
(-87.6797828771 0 0.471327569502)
(-87.679762384 0 0.471297754039)
(-87.6797535557 0 0.471275894362)
(-87.6797532494 0 0.471261180001)
(-87.6797596352 0 0.471253613319)
(-87.6797704891 0 0.471252403676)
(-87.6797844028 0 0.471257450629)
(-87.6798018489 0 0.471268509314)
(-87.6798216953 0 0.47128416469)
(-87.6798409743 0 0.471304403723)
(-87.6798579603 0 0.471329563622)
(-87.6798733416 0 0.471358469623)
(-87.6798869932 0 0.471390582498)
(-87.6798982132 0 0.471425481251)
(-87.6799079404 0 0.471462291005)
(-87.67991738 0 0.471500224357)
(-87.6799273517 0 0.471538508205)
(-87.6799826205 0 0.47413491034)
(-87.6800052823 0 0.474189195451)
(-87.680036166 0 0.474237754006)
(-87.6800752861 0 0.474280409681)
(-87.6801221874 0 0.474317434161)
(-87.6801746989 0 0.474349581056)
(-87.680229914 0 0.474377243122)
(-87.6802829223 0 0.474401804102)
(-87.6803318542 0 0.474423852019)
(-87.6803762438 0 0.474443061597)
(-87.6804118744 0 0.47446020785)
(-87.6804354411 0 0.474475712591)
(-87.6804470977 0 0.474487506121)
(-87.6804478962 0 0.474493854377)
(-87.6804382239 0 0.474498438494)
(-87.68041907 0 0.474497046365)
(-87.6803946937 0 0.47448403326)
(-87.6803652847 0 0.474457251449)
(-87.6803289449 0 0.474418318606)
(-87.6802876613 0 0.474367699271)
(-87.6802434266 0 0.474307693929)
(-87.6801991984 0 0.474241130152)
(-87.680154367 0 0.474172374585)
(-87.6801093772 0 0.474105521567)
(-87.680067115 0 0.474045963267)
(-87.6800347494 0 0.473997703754)
(-87.6800181091 0 0.473964005862)
(-87.6800231169 0 0.473947040943)
(-87.6800482625 0 0.47394221787)
(-87.6800909226 0 0.473951900369)
(-87.6801510679 0 0.473972716942)
(-87.6802263825 0 0.474000172225)
(-87.680312094 0 0.47403102835)
(-87.6804021922 0 0.474062684742)
(-87.680491717 0 0.474091000963)
(-87.6805756415 0 0.474111764739)
(-87.6806456771 0 0.474123192306)
(-87.68069995 0 0.4741249793)
(-87.6807452506 0 0.474115235019)
(-87.6807830482 0 0.474094968066)
(-87.6808046765 0 0.474061812216)
(-87.6808043206 0 0.47401618633)
(-87.6807808003 0 0.473959444477)
(-87.6807371182 0 0.473894478079)
(-87.6806787342 0 0.473825111358)
(-87.6806103789 0 0.473755001676)
(-87.6805380038 0 0.473687047654)
(-87.6804658422 0 0.47362570083)
(-87.6803948427 0 0.4735752175)
(-87.680329343 0 0.473537287843)
(-87.6802698168 0 0.473513370283)
(-87.6802169078 0 0.47350287177)
(-87.680170059 0 0.473504957738)
(-87.6801306186 0 0.473520421658)
(-87.6800992859 0 0.473548116049)
(-87.6800721135 0 0.473586074419)
(-87.6800437842 0 0.473632098952)
(-87.6800181884 0 0.47368544047)
(-87.6799987765 0 0.473745646743)
(-87.6799828822 0 0.473810296538)
(-87.6799707623 0 0.473877623888)
(-87.6799635791 0 0.473945624864)
(-87.6799622517 0 0.47401212253)
(-87.6799682492 0 0.474075567009)
(-87.6796202182 0 0.477341227724)
(-87.6796667288 0 0.477402854265)
(-87.6797257516 0 0.477459307842)
(-87.6797947243 0 0.477510700635)
(-87.6798699114 0 0.477557659661)
(-87.6799472233 0 0.477600985399)
(-87.680022906 0 0.477641148146)
(-87.6800925355 0 0.4776793169)
(-87.6801521771 0 0.477715813118)
(-87.6801995312 0 0.477750390352)
(-87.6802334252 0 0.477783259573)
(-87.6802540654 0 0.477813427591)
(-87.6802630291 0 0.47783879974)
(-87.6802606798 0 0.477858535489)
(-87.6802487189 0 0.477870799662)
(-87.6802315105 0 0.477873038826)
(-87.680211216 0 0.477858786714)
(-87.6801861234 0 0.477828879138)
(-87.6801556549 0 0.477783141014)
(-87.6801204523 0 0.477721927724)
(-87.6800805225 0 0.477647111022)
(-87.6800366889 0 0.477561438459)
(-87.6799875528 0 0.477469903086)
(-87.6799358533 0 0.477376837277)
(-87.6798855424 0 0.477287084915)
(-87.6798424927 0 0.477205082481)
(-87.6798114185 0 0.477135165926)
(-87.6797972131 0 0.477080022299)
(-87.6798051984 0 0.477040349075)
(-87.6798394641 0 0.477015507634)
(-87.679894851 0 0.477005623755)
(-87.679970789 0 0.477007335636)
(-87.680066872 0 0.47701873985)
(-87.68017931 0 0.477036849472)
(-87.6803035669 0 0.477056298166)
(-87.6804343249 0 0.477073332621)
(-87.6805601681 0 0.477086777818)
(-87.6806747373 0 0.477093028153)
(-87.6807826093 0 0.477089614201)
(-87.6808855523 0 0.477079097348)
(-87.6809767378 0 0.477058793581)
(-87.6810467099 0 0.477027931131)
(-87.681086582 0 0.476985549397)
(-87.6810918969 0 0.476932566529)
(-87.6810643708 0 0.476872663385)
(-87.6810063315 0 0.4768100522)
(-87.6809202304 0 0.476748988622)
(-87.6808117733 0 0.476692884724)
(-87.6806873455 0 0.476646682558)
(-87.6805545353 0 0.476613032086)
(-87.6804194591 0 0.476593439177)
(-87.6802875736 0 0.476587585412)
(-87.6801630989 0 0.476596614879)
(-87.6800517982 0 0.476620414041)
(-87.6799526961 0 0.47665983248)
(-87.6798604252 0 0.476709455956)
(-87.6797767785 0 0.476765560828)
(-87.6797065839 0 0.476830972595)
(-87.6796484966 0 0.47690305667)
(-87.6796029633 0 0.476977873803)
(-87.679573926 0 0.477054187256)
(-87.6795623924 0 0.477130227598)
(-87.6795672562 0 0.477204201873)
(-87.6795869692 0 0.477274824183)
(-87.6792755955 0 0.482265687695)
(-87.6793456624 0 0.48231745383)
(-87.679427651 0 0.482366642659)
(-87.6795170465 0 0.482414104424)
(-87.67960931 0 0.482461023521)
(-87.6797000863 0 0.482508470407)
(-87.6797853108 0 0.482557224858)
(-87.6798615049 0 0.482608026003)
(-87.6799262163 0 0.482660969232)
(-87.6799785272 0 0.48271503547)
(-87.6800187901 0 0.482768842469)
(-87.6800484573 0 0.482820435253)
(-87.6800699413 0 0.482866718376)
(-87.680085713 0 0.482903660498)
(-87.6800977766 0 0.48292772362)
(-87.6801074293 0 0.482937821068)
(-87.6801158766 0 0.482931108391)
(-87.6801190684 0 0.48290243111)
(-87.6801165382 0 0.482852074375)
(-87.6801074894 0 0.482781744402)
(-87.6800915653 0 0.482692987351)
(-87.680068195 0 0.482589114106)
(-87.6800380817 0 0.482474744783)
(-87.6800030648 0 0.482354981882)
(-87.6799664149 0 0.482235225453)
(-87.6799315143 0 0.482121212347)
(-87.6799025782 0 0.482017951799)
(-87.6798835124 0 0.481928972264)
(-87.679878379 0 0.481855759583)
(-87.6798920192 0 0.481798255103)
(-87.6799300416 0 0.481756554668)
(-87.6799914541 0 0.481731690418)
(-87.680074685 0 0.481723286375)
(-87.6801783679 0 0.48172727685)
(-87.6803005408 0 0.481737618852)
(-87.680437485 0 0.481752170013)
(-87.6805790721 0 0.481770707754)
(-87.6807153077 0 0.481786370797)
(-87.6808455438 0 0.481796612847)
(-87.6809701046 0 0.481805951248)
(-87.6810844458 0 0.481811179166)
(-87.6811813255 0 0.48181116573)
(-87.6812513465 0 0.481804315304)
(-87.6812844416 0 0.481789627539)
(-87.6812735476 0 0.481768704768)
(-87.6812160947 0 0.481740922561)
(-87.6811138726 0 0.481713784344)
(-87.6809729959 0 0.481686278539)
(-87.6808009831 0 0.481661390552)
(-87.6806092256 0 0.481643383828)
(-87.6804097383 0 0.481633924761)
(-87.6802119787 0 0.481634290761)
(-87.6800221394 0 0.481645932436)
(-87.6798449233 0 0.481667452918)
(-87.6796869489 0 0.481702895214)
(-87.6795492753 0 0.481748818017)
(-87.6794290452 0 0.481797680611)
(-87.6793292871 0 0.481852837893)
(-87.6792520094 0 0.481912805449)
(-87.6791975837 0 0.481973035881)
(-87.6791688054 0 0.482033982662)
(-87.6791649223 0 0.482094750563)
(-87.679183297 0 0.482154049422)
(-87.6792209034 0 0.482211119293)
(-87.6794122776 0 0.486995069633)
(-87.6794920685 0 0.487042845013)
(-87.6795803553 0 0.487089701407)
(-87.6796705906 0 0.487136673331)
(-87.6797573921 0 0.48718510641)
(-87.6798369781 0 0.487236517953)
(-87.6799072032 0 0.487291978839)
(-87.6799671949 0 0.487351985565)
(-87.6800173672 0 0.487415992869)
(-87.6800592412 0 0.487482532397)
(-87.6800954454 0 0.487549471295)
(-87.6801289013 0 0.487614195793)
(-87.6801625936 0 0.48767315883)
(-87.6801990071 0 0.487722350623)
(-87.6802403658 0 0.487758226391)
(-87.6802860945 0 0.487777927209)
(-87.6803312101 0 0.487778488197)
(-87.680370025 0 0.487755377825)
(-87.6804017765 0 0.48770769369)
(-87.6804266208 0 0.487635172203)
(-87.6804426759 0 0.487539410483)
(-87.6804492365 0 0.487423819375)
(-87.6804468751 0 0.487293168832)
(-87.6804363518 0 0.487153324032)
(-87.6804190111 0 0.48701076651)
(-87.6803962935 0 0.486872132827)
(-87.6803710445 0 0.48674308697)
(-87.6803468369 0 0.486627622821)
(-87.6803276873 0 0.486528137423)
(-87.6803170592 0 0.486446082655)
(-87.6803207214 0 0.486381983439)
(-87.6803501814 0 0.486336184247)
(-87.6804058592 0 0.486312629396)
(-87.6804830173 0 0.486308370335)
(-87.6805822965 0 0.486316221606)
(-87.6807033989 0 0.486334392144)
(-87.6808398646 0 0.486362608336)
(-87.6809786007 0 0.486394094338)
(-87.6811134029 0 0.486425050004)
(-87.6812447727 0 0.48645779068)
(-87.681369483 0 0.486490101337)
(-87.6814814713 0 0.486520770757)
(-87.6815733279 0 0.486547493448)
(-87.6816323112 0 0.486567920095)
(-87.6816449574 0 0.486579339377)
(-87.6816132222 0 0.486585012702)
(-87.6815300967 0 0.486583615047)
(-87.6813978438 0 0.48657571199)
(-87.6812235717 0 0.486562442243)
(-87.6810181112 0 0.4865484447)
(-87.6807943498 0 0.486536787711)
(-87.6805639449 0 0.486528835326)
(-87.680336388 0 0.48652793483)
(-87.6801188032 0 0.486534206844)
(-87.6799176515 0 0.486550231367)
(-87.6797407777 0 0.486577338121)
(-87.6795930327 0 0.486611158942)
(-87.6794740197 0 0.486651790987)
(-87.6793813864 0 0.486696830535)
(-87.6793162573 0 0.486742907659)
(-87.6792820338 0 0.486792029576)
(-87.6792784531 0 0.486843572003)
(-87.6793018346 0 0.486895092061)
(-87.6793473975 0 0.486945748555)
(-87.6797038052 0 0.489004984071)
(-87.6797816403 0 0.489074796339)
(-87.679864543 0 0.489142668956)
(-87.6799451484 0 0.489208973413)
(-87.6800181902 0 0.489274236879)
(-87.6800803975 0 0.48933970758)
(-87.680130992 0 0.489406146683)
(-87.680170827 0 0.489473729427)
(-87.6802029806 0 0.489541538952)
(-87.6802313196 0 0.48960830602)
(-87.6802605305 0 0.489672386241)
(-87.6802949037 0 0.489731808094)
(-87.6803382008 0 0.489784185671)
(-87.6803923352 0 0.4898269064)
(-87.6804566736 0 0.489857054095)
(-87.6805281994 0 0.489871898157)
(-87.6806029471 0 0.489869097897)
(-87.6806769886 0 0.48984526701)
(-87.6807467558 0 0.489797666491)
(-87.6808098075 0 0.48972539289)
(-87.6808647089 0 0.489629492186)
(-87.6809101833 0 0.489512871098)
(-87.680945688 0 0.4893803295)
(-87.6809705094 0 0.489238022318)
(-87.6809838419 0 0.489092721067)
(-87.6809854217 0 0.488950908884)
(-87.6809762144 0 0.488817902792)
(-87.6809585757 0 0.488697216109)
(-87.6809369486 0 0.488591072461)
(-87.6809157404 0 0.488500529379)
(-87.6808974845 0 0.488426720138)
(-87.6808884171 0 0.488370934571)
(-87.6809032995 0 0.488332435618)
(-87.6809434004 0 0.488316424148)
(-87.681002486 0 0.488314749686)
(-87.6810837202 0 0.488326057169)
(-87.6811866024 0 0.488349269034)
(-87.6813018524 0 0.488381650512)
(-87.681421297 0 0.488417790679)
(-87.6815422692 0 0.488454902548)
(-87.6816617629 0 0.488492272328)
(-87.6817753871 0 0.488528312602)
(-87.6818771139 0 0.488559651774)
(-87.68195635 0 0.488583434849)
(-87.6819996534 0 0.488597098516)
(-87.6819966106 0 0.488601919409)
(-87.6819461953 0 0.488592868023)
(-87.6818459962 0 0.488573904418)
(-87.6816984415 0 0.488546262307)
(-87.6815099759 0 0.488516401291)
(-87.6812910165 0 0.488487011639)
(-87.681053153 0 0.488460088268)
(-87.680808081 0 0.488440907776)
(-87.6805671632 0 0.488432347706)
(-87.6803394262 0 0.488435777078)
(-87.6801325992 0 0.488453635974)
(-87.6799552845 0 0.488486415407)
(-87.6798138992 0 0.488532501201)
(-87.6797076858 0 0.488586892541)
(-87.6796320462 0 0.488647088674)
(-87.6795869422 0 0.488714249524)
(-87.6795756632 0 0.488786417002)
(-87.6795948089 0 0.488859867281)
(-87.6796391554 0 0.488933145505)
(-87.6796996011 0 0.487531656534)
(-87.6797802378 0 0.487639208741)
(-87.6798649904 0 0.487743164113)
(-87.6799468223 0 0.4878423947)
(-87.680020511 0 0.487936143072)
(-87.6800836295 0 0.488024110812)
(-87.6801354314 0 0.48810650571)
(-87.6801786722 0 0.488182376876)
(-87.6802169309 0 0.488250632654)
(-87.6802546977 0 0.488310301252)
(-87.6802965864 0 0.488360817098)
(-87.6803469599 0 0.488401793452)
(-87.6804082643 0 0.48843244713)
(-87.6804798852 0 0.488452279676)
(-87.6805602643 0 0.488460443037)
(-87.6806474456 0 0.488455318259)
(-87.6807390947 0 0.488435160646)
(-87.6808327163 0 0.488398270895)
(-87.6809256285 0 0.488342700456)
(-87.6810146977 0 0.48826723545)
(-87.6810968687 0 0.488172592814)
(-87.6811706418 0 0.488061865328)
(-87.6812344861 0 0.487939357465)
(-87.6812870683 0 0.487810774753)
(-87.6813254717 0 0.487681872453)
(-87.6813481532 0 0.487557788707)
(-87.6813550891 0 0.487441847154)
(-87.6813465871 0 0.48733526085)
(-87.6813284579 0 0.48723781786)
(-87.6813069504 0 0.487149442957)
(-87.6812810601 0 0.487070286808)
(-87.6812530081 0 0.487001459474)
(-87.6812321681 0 0.486945856857)
(-87.6812335151 0 0.486903026052)
(-87.6812561092 0 0.486874319866)
(-87.6812954554 0 0.486857905223)
(-87.681356042 0 0.486853431709)
(-87.6814377573 0 0.486860498637)
(-87.6815365516 0 0.486874809024)
(-87.6816471561 0 0.486891416044)
(-87.6817642795 0 0.486909507581)
(-87.6818839649 0 0.486925956435)
(-87.6820001434 0 0.486936846956)
(-87.6821025441 0 0.486939395338)
(-87.6821786454 0 0.486932073096)
(-87.6822156833 0 0.486916835109)
(-87.6822023842 0 0.486888713551)
(-87.6821290433 0 0.486846181046)
(-87.6820005361 0 0.48679734027)
(-87.681820957 0 0.486750470901)
(-87.6815977444 0 0.486707327932)
(-87.6813415338 0 0.486670963715)
(-87.68106567 0 0.486646713675)
(-87.680785134 0 0.48663910049)
(-87.6805137305 0 0.486650190869)
(-87.680262451 0 0.48668254974)
(-87.6800427607 0 0.48673569814)
(-87.6798657306 0 0.486806297191)
(-87.6797332386 0 0.486889754422)
(-87.6796386644 0 0.486984089182)
(-87.6795825068 0 0.487088676881)
(-87.6795664846 0 0.487198660598)
(-87.6795850944 0 0.487310090023)
(-87.6796316378 0 0.487421561947)
(-87.6794024893 0 0.482961567295)
(-87.6794892784 0 0.483080171144)
(-87.6795832901 0 0.483195716259)
(-87.6796781216 0 0.483305787075)
(-87.6797691475 0 0.483408299858)
(-87.6798538728 0 0.483501869198)
(-87.6799317911 0 0.483585675264)
(-87.680004881 0 0.483658152692)
(-87.6800760309 0 0.483717960476)
(-87.6801481534 0 0.483764479011)
(-87.680223078 0 0.483797575482)
(-87.6803007916 0 0.4838178017)
(-87.6803808178 0 0.483826012095)
(-87.6804628978 0 0.483823122875)
(-87.6805467927 0 0.483809752253)
(-87.6806320346 0 0.483785984577)
(-87.6807181877 0 0.483751694872)
(-87.6808049429 0 0.483706106082)
(-87.680891486 0 0.48364754427)
(-87.6809765457 0 0.483575200846)
(-87.68105842 0 0.483489942713)
(-87.6811365467 0 0.48339499796)
(-87.6812094658 0 0.483294256356)
(-87.6812757356 0 0.483192823853)
(-87.6813317781 0 0.483095205476)
(-87.6813765617 0 0.483005132262)
(-87.6814103592 0 0.482923724725)
(-87.6814329308 0 0.482849443533)
(-87.6814423806 0 0.482779359245)
(-87.6814449258 0 0.482712455344)
(-87.6814425836 0 0.482648477561)
(-87.681431656 0 0.482586332784)
(-87.6814132495 0 0.482526798856)
(-87.6813971491 0 0.482470639905)
(-87.6813919189 0 0.482420038448)
(-87.6814002326 0 0.482375665854)
(-87.6814255158 0 0.482337876487)
(-87.6814740779 0 0.482311199467)
(-87.6815457558 0 0.482291988618)
(-87.6816405681 0 0.48227740727)
(-87.6817553718 0 0.48226664346)
(-87.681884106 0 0.482256882318)
(-87.6820180086 0 0.482245498371)
(-87.6821449437 0 0.482230688681)
(-87.6822497923 0 0.482211244664)
(-87.6823169749 0 0.482188382286)
(-87.6823332015 0 0.482163981324)
(-87.6822853201 0 0.48212063008)
(-87.6821594159 0 0.482084485536)
(-87.6819730854 0 0.482047245307)
(-87.6817296276 0 0.482014750686)
(-87.681439292 0 0.481989682775)
(-87.6811176604 0 0.481976277184)
(-87.680782505 0 0.481978952676)
(-87.6804513307 0 0.482000465799)
(-87.6801416339 0 0.482043597628)
(-87.6798711062 0 0.482106757632)
(-87.6796507261 0 0.482184983767)
(-87.6794807428 0 0.482274698376)
(-87.6793599848 0 0.482376233954)
(-87.6792887525 0 0.482487804197)
(-87.6792654743 0 0.482604856289)
(-87.6792832273 0 0.48272266939)
(-87.6793309347 0 0.482841912284)
(-87.6791921082 0 0.47578324712)
(-87.6792848626 0 0.475864777354)
(-87.6793907858 0 0.4759470771)
(-87.6795038724 0 0.476026741096)
(-87.6796193509 0 0.476101125793)
(-87.6797345122 0 0.476168289014)
(-87.6798480472 0 0.476227659501)
(-87.6799603132 0 0.476278151689)
(-87.6800713508 0 0.476318579676)
(-87.6801797947 0 0.476348255891)
(-87.6802834627 0 0.476367191217)
(-87.6803807121 0 0.476376207132)
(-87.680471073 0 0.476376032448)
(-87.6805546464 0 0.476367602314)
(-87.6806318233 0 0.476352108316)
(-87.6807035009 0 0.476330753138)
(-87.6807714777 0 0.476304181984)
(-87.6808376572 0 0.476270654226)
(-87.6809026973 0 0.476226663673)
(-87.6809672244 0 0.476170179747)
(-87.6810320431 0 0.476101469751)
(-87.6810983356 0 0.476023749818)
(-87.68116566 0 0.475941472322)
(-87.6812330346 0 0.47586008352)
(-87.6812972091 0 0.475784159651)
(-87.681357345 0 0.475717155812)
(-87.6814151301 0 0.475660590748)
(-87.6814715684 0 0.475614844514)
(-87.6815181211 0 0.475575793529)
(-87.6815529018 0 0.475540485315)
(-87.6815828373 0 0.47551033845)
(-87.6816041162 0 0.475483848712)
(-87.6816101904 0 0.475457329126)
(-87.6816053456 0 0.475430145477)
(-87.6815953522 0 0.475401426106)
(-87.6815869069 0 0.475371143514)
(-87.6815896914 0 0.475339618708)
(-87.6816138954 0 0.475310154668)
(-87.6816629882 0 0.475282914681)
(-87.6817393612 0 0.475256757679)
(-87.6818421725 0 0.475233636516)
(-87.6819653014 0 0.475214190947)
(-87.6820986248 0 0.475198702864)
(-87.6822280102 0 0.475187208266)
(-87.6823361101 0 0.475179562646)
(-87.6824054249 0 0.475176662533)
(-87.6824212788 0 0.475178481494)
(-87.6823762623 0 0.475177315052)
(-87.6822515446 0 0.475180109451)
(-87.6820568067 0 0.4751817967)
(-87.6817976856 0 0.475180033868)
(-87.6814826095 0 0.47517828621)
(-87.6811287053 0 0.475179401371)
(-87.6807557021 0 0.475186469263)
(-87.6803838507 0 0.475202986464)
(-87.6800346855 0 0.475231302383)
(-87.6797301849 0 0.475270128347)
(-87.6794837628 0 0.475315117687)
(-87.6792969244 0 0.475366624395)
(-87.6791652154 0 0.47542409867)
(-87.6790840567 0 0.47548662624)
(-87.6790589539 0 0.47555810808)
(-87.6790777961 0 0.475628404291)
(-87.6791200824 0 0.475705132238)
(-87.6787862109 0 0.465994022614)
(-87.6788677577 0 0.46603419282)
(-87.6789714119 0 0.46607790279)
(-87.6790891775 0 0.466122217847)
(-87.6792152652 0 0.466164653457)
(-87.6793468167 0 0.466203371935)
(-87.679481747 0 0.466238316589)
(-87.6796179334 0 0.46626936936)
(-87.6797523132 0 0.466295983257)
(-87.6798809689 0 0.466317420733)
(-87.6800000669 0 0.466333194333)
(-87.6801066305 0 0.466343770892)
(-87.6801989535 0 0.466349728522)
(-87.6802766476 0 0.46635169101)
(-87.6803406816 0 0.46635046218)
(-87.680393547 0 0.466347337806)
(-87.6804392977 0 0.466342301796)
(-87.6804816665 0 0.466330891595)
(-87.6805226623 0 0.466307008616)
(-87.680567032 0 0.466264397048)
(-87.6806184234 0 0.466201193071)
(-87.6806766079 0 0.46612119001)
(-87.6807411661 0 0.466030512762)
(-87.6808113914 0 0.465936166551)
(-87.6808844104 0 0.465844827992)
(-87.6809577699 0 0.465762162231)
(-87.6810315543 0 0.465692763284)
(-87.6811076271 0 0.465641027809)
(-87.6811807578 0 0.465606656604)
(-87.6812438817 0 0.46558653145)
(-87.6812970015 0 0.465580642284)
(-87.6813408773 0 0.465588194397)
(-87.6813732363 0 0.465607382899)
(-87.681393573 0 0.465633758791)
(-87.6814050244 0 0.465662136544)
(-87.6814129547 0 0.465688963243)
(-87.6814286535 0 0.465709983381)
(-87.6814587725 0 0.465723559625)
(-87.6815084413 0 0.465731424804)
(-87.6815807413 0 0.465731784946)
(-87.6816747974 0 0.465728483634)
(-87.6817853401 0 0.465724880334)
(-87.6819024422 0 0.465723093387)
(-87.6820117389 0 0.465724985868)
(-87.6820978245 0 0.465732799681)
(-87.6821486678 0 0.46574802753)
(-87.6821544751 0 0.465764072284)
(-87.682103191 0 0.465790893616)
(-87.6819752388 0 0.465813480947)
(-87.6817899032 0 0.465838659641)
(-87.6815425046 0 0.465851813872)
(-87.6812357235 0 0.465856574375)
(-87.6808830093 0 0.465856285617)
(-87.6805039599 0 0.465852433932)
(-87.6801211295 0 0.465848535378)
(-87.6797581578 0 0.465846702714)
(-87.6794382417 0 0.465848132446)
(-87.6791775866 0 0.465850373859)
(-87.6789796403 0 0.465857053338)
(-87.6788373796 0 0.465867029556)
(-87.6787437898 0 0.465880967091)
(-87.6786998034 0 0.46590360267)
(-87.6787019676 0 0.465925205074)
(-87.678728299 0 0.46596030471)
(-87.6784645082 0 0.453480842843)
(-87.6785315805 0 0.453501803547)
(-87.6786268581 0 0.453526454392)
(-87.6787424537 0 0.453553298717)
(-87.6788705055 0 0.453580720176)
(-87.6790068732 0 0.453607422677)
(-87.6791486177 0 0.453633533082)
(-87.6792923862 0 0.453659430672)
(-87.6794337825 0 0.453684908329)
(-87.6795674488 0 0.45370932592)
(-87.67968787 0 0.453732120198)
(-87.6797904029 0 0.453753327219)
(-87.6798722324 0 0.453772764012)
(-87.679933009 0 0.453789645167)
(-87.6799759346 0 0.45380357065)
(-87.680006357 0 0.453815599395)
(-87.6800302978 0 0.453822105961)
(-87.6800535982 0 0.453818834834)
(-87.6800842096 0 0.453795154171)
(-87.6801323706 0 0.45374067188)
(-87.6801980165 0 0.453654752073)
(-87.6802738617 0 0.45354369532)
(-87.6803581359 0 0.453416583154)
(-87.6804497633 0 0.453283308529)
(-87.6805432542 0 0.453152663062)
(-87.6806332433 0 0.453032624227)
(-87.6807167765 0 0.452930061697)
(-87.6807946074 0 0.452851283842)
(-87.6808645263 0 0.452798010861)
(-87.6809242113 0 0.452768246457)
(-87.6809737112 0 0.452760502018)
(-87.6810114421 0 0.4527738917)
(-87.6810330712 0 0.452812435395)
(-87.6810468009 0 0.452870772381)
(-87.6810611353 0 0.452943718456)
(-87.6810811642 0 0.453024833774)
(-87.6811124815 0 0.453107946265)
(-87.681161306 0 0.453188426802)
(-87.6812297109 0 0.453262785004)
(-87.6813180451 0 0.453326002056)
(-87.6814217362 0 0.45337726495)
(-87.6815340051 0 0.453416896117)
(-87.6816451237 0 0.453444011288)
(-87.6817420744 0 0.453460292775)
(-87.6818118375 0 0.453470139038)
(-87.6818453049 0 0.453477823014)
(-87.6818398368 0 0.453484058394)
(-87.6817822245 0 0.453498066039)
(-87.6816614463 0 0.453507629703)
(-87.681492973 0 0.453525119519)
(-87.681269787 0 0.45353233105)
(-87.6809908171 0 0.453530458028)
(-87.6806631006 0 0.453524252317)
(-87.6803022881 0 0.453512436355)
(-87.6799307562 0 0.453496213459)
(-87.6795731151 0 0.453478472375)
(-87.6792516121 0 0.453462894928)
(-87.678982453 0 0.453448717287)
(-87.6787707103 0 0.453439577791)
(-87.6786108747 0 0.453434670429)
(-87.6784989189 0 0.453434845954)
(-87.6784362141 0 0.453440119356)
(-87.6784137085 0 0.453449830216)
(-87.6784245474 0 0.453464130722)
(-87.6780787698 0 0.440018572103)
(-87.6781393082 0 0.440029329665)
(-87.6782306347 0 0.440043616695)
(-87.6783447602 0 0.44006042753)
(-87.6784733541 0 0.440078699671)
(-87.6786114705 0 0.440097567754)
(-87.6787556382 0 0.440117055149)
(-87.6789019912 0 0.440137932869)
(-87.6790452636 0 0.440160897345)
(-87.6791787551 0 0.440186312343)
(-87.6792955642 0 0.440213918508)
(-87.6793904397 0 0.440242606153)
(-87.6794613947 0 0.440269649868)
(-87.6795103899 0 0.44029141831)
(-87.6795408864 0 0.440307664173)
(-87.6795596597 0 0.440315458591)
(-87.6795775172 0 0.440309770777)
(-87.6796026113 0 0.440281887338)
(-87.6796478151 0 0.440221827516)
(-87.6797188107 0 0.440126656104)
(-87.6798055165 0 0.43999995616)
(-87.6798997513 0 0.439849962208)
(-87.6800004398 0 0.439689077723)
(-87.6801058945 0 0.439529983791)
(-87.6802093394 0 0.439381289726)
(-87.6803036083 0 0.439249425101)
(-87.6803822608 0 0.439138904619)
(-87.6804472686 0 0.439053315813)
(-87.6805014051 0 0.438993741695)
(-87.6805422353 0 0.438957929094)
(-87.680567931 0 0.438943042585)
(-87.6805762489 0 0.438944964771)
(-87.680566149 0 0.438971033309)
(-87.6805465786 0 0.439026822687)
(-87.6805280123 0 0.439106216145)
(-87.6805253453 0 0.43920630424)
(-87.6805446354 0 0.439322811046)
(-87.6805898519 0 0.439449724886)
(-87.6806662281 0 0.439579872394)
(-87.6807755109 0 0.439704768158)
(-87.6809118763 0 0.439816540725)
(-87.6810637808 0 0.439908594966)
(-87.6812154553 0 0.439975309364)
(-87.6813469277 0 0.44001657108)
(-87.6814399374 0 0.440037081848)
(-87.6814841462 0 0.440043697719)
(-87.6814807844 0 0.440047201084)
(-87.6814239381 0 0.440050981712)
(-87.6813061334 0 0.440051790718)
(-87.6811413379 0 0.44006257424)
(-87.6809292082 0 0.440067588498)
(-87.680666557 0 0.440063842719)
(-87.6803571335 0 0.440059502672)
(-87.6800125165 0 0.440051485751)
(-87.6796517465 0 0.440038371568)
(-87.6792975341 0 0.440023830669)
(-87.6789703555 0 0.440011938556)
(-87.6786863662 0 0.440002800983)
(-87.6784551166 0 0.439997903079)
(-87.6782769657 0 0.439996198228)
(-87.6781496076 0 0.439995699553)
(-87.6780735854 0 0.439997140139)
(-87.6780435289 0 0.440003267424)
(-87.6780479552 0 0.440009448836)
(-87.6782081238 0 0.428763647265)
(-87.6782639991 0 0.428756684601)
(-87.6783497072 0 0.428756341874)
(-87.6784600879 0 0.428759670431)
(-87.6785869164 0 0.428764845472)
(-87.6787241357 0 0.428770764547)
(-87.678866714 0 0.428777206546)
(-87.6790090508 0 0.428785397772)
(-87.6791444131 0 0.428797232182)
(-87.679265699 0 0.428814114804)
(-87.679367376 0 0.42883578677)
(-87.679446967 0 0.42885971517)
(-87.6795049994 0 0.428880273516)
(-87.6795444097 0 0.428891358322)
(-87.6795702331 0 0.428893732156)
(-87.6795904856 0 0.428881888978)
(-87.6796177123 0 0.428844128656)
(-87.6796620054 0 0.428774442073)
(-87.6797270785 0 0.428672183862)
(-87.6798061783 0 0.428541735723)
(-87.6798901252 0 0.428388284324)
(-87.6799764549 0 0.42822039755)
(-87.6800671911 0 0.428052125143)
(-87.6801608097 0 0.427896034434)
(-87.6802531888 0 0.427759271818)
(-87.6803394628 0 0.427645894909)
(-87.6804157401 0 0.427558390206)
(-87.6804788895 0 0.427495454624)
(-87.6805283642 0 0.427455046903)
(-87.6805645398 0 0.427435632668)
(-87.6805806492 0 0.427431927702)
(-87.6805749028 0 0.427440092275)
(-87.6805452993 0 0.427468597474)
(-87.6804976153 0 0.427522947764)
(-87.6804386598 0 0.427597008326)
(-87.6803899907 0 0.427692772464)