/*--------------------------------*- C++ -*----------------------------------*\
  =========                 |
  \\      /  F ield         | OpenFOAM: The Open Source CFD Toolbox
   \\    /   O peration     | Website:  https://openfoam.org
    \\  /    A nd           | Version:  6
     \\/     M anipulation  |
\*---------------------------------------------------------------------------*/
FoamFile
{
    version     2.0;
    format      ascii;
    class       volVectorField;
    location    "6e-06";
    object      U;
}
// * * * * * * * * * * * * * * * * * * * * * * * * * * * * * * * * * * * * * //

dimensions      [0 1 -1 0 0 0 0];

internalField   nonuniform List<vector> 
8192
(
(-88.322 0 -3.40743892474e-12)
(-88.322 0 -1.81979166781e-13)
(-88.322 0 -3.09010588726e-12)
(-88.322 0 -5.45104543169e-12)
(-88.322 0 1.16690588377e-12)
(-88.322 0 -6.51544930283e-13)
(-88.322 0 -2.34517863181e-13)
(-88.322 0 4.46153515903e-13)
(-88.322 0 -2.57126548884e-12)
(-88.322 0 -6.0876378195e-12)
(-88.322 0 -6.15390064814e-12)
(-88.322 0 1.8453346967e-12)
(-88.322 0 -4.77223064106e-12)
(-88.322 0 -5.37309017008e-12)
(-88.322 0 -1.00579484278e-11)
(-88.322 0 2.89135146375e-12)
(-88.322 0 -1.17477533096e-12)
(-88.322 0 2.55436273339e-12)
(-88.322 0 -6.26900630973e-12)
(-88.322 0 -7.03768841267e-12)
(-88.322 0 3.83354126647e-12)
(-88.322 0 3.11786682941e-12)
(-88.322 0 4.1148769441e-13)
(-88.322 0 -2.0001822287e-12)
(-88.322 0 1.5743765685e-12)
(-88.322 0 1.09497025573e-12)
(-88.322 0 2.75153711364e-12)
(-88.322 0 3.10730598291e-12)
(-88.322 0 1.07677331764e-12)
(-88.322 0 -2.31279762513e-12)
(-88.322 0 4.96891883245e-12)
(-88.322 0 -4.27353993428e-13)
(-88.322 0 -2.37463742416e-12)
(-88.322 0 6.29085648622e-12)
(-88.322 0 -7.6723739653e-12)
(-88.322 0 -1.76586488196e-12)
(-88.322 0 9.8387322936e-13)
(-88.322 0 -9.69392977931e-12)
(-88.322 0 5.19209269644e-12)
(-88.322 0 -8.49324059106e-14)
(-88.322 0 3.18606265164e-12)
(-88.322 0 -3.43149882823e-13)
(-88.322 0 -2.24889234674e-12)
(-88.322 0 -5.61424502413e-13)
(-88.322 0 -4.29662162614e-12)
(-88.322 0 -7.89120478044e-13)
(-88.322 0 -7.59410640238e-14)
(-88.322 0 -7.92804955986e-14)
(-88.322 0 1.28562385244e-12)
(-88.322 0 -2.411937247e-12)
(-88.322 0 -4.04407892463e-13)
(-88.322 0 -3.05865124585e-12)
(-88.322 0 -4.18595818953e-13)
(-88.322 0 5.02337951333e-12)
(-88.322 0 7.46459498437e-13)
(-88.322 0 -7.17122286244e-12)
(-88.322 0 3.13017003304e-12)
(-88.322 0 -4.35828443247e-12)
(-88.322 0 -9.408236374e-13)
(-88.322 0 2.0404228026e-13)
(-88.322 0 4.35674494417e-12)
(-88.322 0 8.92266674459e-12)
(-88.322 0 8.64116564795e-12)
(-88.322 0 2.67448695184e-12)
(-88.322 0 7.40031123528e-14)
(-88.322 0 4.848376644e-14)
(-88.322 0 1.90615140079e-12)
(-88.322 0 -1.86681846726e-13)
(-88.322 0 -7.62444263061e-14)
(-88.322 0 -2.24057604239e-13)
(-88.322 0 -4.4307359834e-14)
(-88.322 0 6.31029303185e-15)
(-88.322 0 -7.00596560052e-14)
(-88.322 0 -2.38721228005e-12)
(-88.322 0 -1.19119377944e-13)
(-88.322 0 -4.63944866902e-12)
(-88.322 0 -2.47468910887e-14)
(-88.322 0 -7.68577375206e-15)
(-88.322 0 5.12772588207e-14)
(-88.322 0 1.45150581107e-12)
(-88.322 0 2.22902588105e-14)
(-88.322 0 3.62857798434e-13)
(-88.322 0 -3.24725451249e-12)
(-88.322 0 -7.57558850625e-14)
(-88.322 0 1.16115112762e-13)
(-88.322 0 3.73740638025e-14)
(-88.322 0 2.78078955565e-14)
(-88.322 0 1.17403461512e-13)
(-88.322 0 2.12865596704e-12)
(-88.322 0 -8.76758350462e-12)
(-88.322 0 5.16514661699e-12)
(-88.322 0 1.00982877073e-12)
(-88.322 0 3.27107626154e-13)
(-88.322 0 -5.1590783363e-14)
(-88.322 0 -2.33164024311e-13)
(-88.322 0 -2.27547964194e-13)
(-88.322 0 3.81821328495e-13)
(-88.322 0 -5.12611808079e-12)
(-88.322 0 1.66015865227e-12)
(-88.322 0 -2.6930478494e-12)
(-88.322 0 -3.32417632871e-12)
(-88.322 0 1.2640512562e-12)
(-88.322 0 -3.323911169e-12)
(-88.322 0 5.252326482e-14)
(-88.322 0 1.83663570798e-12)
(-88.322 0 -5.13927604341e-13)
(-88.322 0 -6.20310941656e-14)
(-88.322 0 8.18509828277e-13)
(-88.322 0 -4.43191838118e-12)
(-88.322 0 -6.75867095357e-12)
(-88.322 0 -4.86211884247e-12)
(-88.322 0 -5.87358590126e-13)
(-88.322 0 -8.74274891699e-12)
(-88.322 0 -1.06702742795e-12)
(-88.322 0 1.86528857664e-12)
(-88.322 0 -5.0573889281e-13)
(-88.322 0 -8.50677145216e-14)
(-88.322 0 -2.52000620216e-13)
(-88.322 0 -2.42116806067e-12)
(-88.322 0 1.56398514946e-11)
(-88.322 0 -3.12829377872e-12)
(-88.322 0 -4.03511214153e-12)
(-88.322 0 -8.81592895141e-12)
(-88.322 0 -8.07896006293e-13)
(-88.322 0 -1.90506808504e-12)
(-88.322 0 -1.73991677409e-11)
(-88.322 0 -1.17808973327e-11)
(-88.322 0 -3.65641893621e-12)
(-88.322 0 1.26642892454e-12)
(-88.322 0 1.01678530823e-12)
(-88.322 0 -1.24379382578e-12)
(-88.322 0 5.67534231951e-12)
(-88.322 0 8.95940886637e-13)
(-88.322 0 2.37339781662e-12)
(-88.322 0 4.10019906494e-13)
(-88.322 0 5.08444406365e-13)
(-88.322 0 -2.00390170998e-13)
(-88.322 0 5.75901582841e-12)
(-88.322 0 5.85353406842e-12)
(-88.322 0 -6.52035353426e-13)
(-88.322 0 3.18685935401e-12)
(-88.322 0 8.22832552609e-13)
(-88.322 0 9.06015149068e-12)
(-88.322 0 -2.69599358749e-12)
(-88.322 0 7.26035425776e-13)
(-88.322 0 1.92554409815e-13)
(-88.322 0 6.21040497834e-12)
(-88.322 0 5.18587885078e-12)
(-88.322 0 -3.7994866861e-12)
(-88.322 0 3.16674937046e-13)
(-88.322 0 2.42368105585e-12)
(-88.322 0 2.01659860709e-12)
(-88.322 0 1.47247196503e-12)
(-88.322 0 -1.0330929128e-12)
(-88.322 0 1.43715811127e-13)
(-88.322 0 7.80438050045e-13)
(-88.322 0 -2.45545514978e-13)
(-88.322 0 -4.55335211976e-12)
(-88.322 0 1.35135579708e-12)
(-88.322 0 4.80275468291e-13)
(-88.322 0 1.19297019896e-12)
(-88.322 0 4.64499095865e-12)
(-88.322 0 1.50166695263e-11)
(-88.322 0 3.96572413564e-13)
(-88.322 0 -2.83392848406e-12)
(-88.322 0 3.97821806984e-12)
(-88.322 0 8.88566774346e-12)
(-88.322 0 -8.70202855268e-12)
(-88.322 0 -6.44039809522e-12)
(-88.322 0 8.35482684503e-14)
(-88.322 0 -5.43059388329e-12)
(-88.322 0 -5.17745226709e-13)
(-88.322 0 -4.64724396935e-12)
(-88.322 0 -4.21968371968e-13)
(-88.322 0 -3.02808467307e-12)
(-88.322 0 -9.22473794934e-12)
(-88.322 0 1.49754357797e-12)
(-88.322 0 4.24614699768e-13)
(-88.322 0 -3.20635113341e-13)
(-88.322 0 3.33289507738e-12)
(-88.322 0 -9.08382391095e-12)
(-88.322 0 1.60712351065e-12)
(-88.322 0 -2.92724221396e-12)
(-88.322 0 -7.72082771543e-12)
(-88.322 0 -4.88544903923e-12)
(-88.322 0 -4.60310052301e-12)
(-88.322 0 -9.20456774499e-13)
(-88.322 0 -3.12435204505e-13)
(-88.322 0 1.49076873792e-13)
(-88.322 0 3.08763015369e-12)
(-88.322 0 1.94389544613e-13)
(-88.322 0 1.8020437693e-12)
(-88.322 0 3.23283619602e-12)
(-88.322 0 -5.79520476568e-13)
(-88.322 0 7.73355801627e-13)
(-88.322 0 3.50320006562e-12)
(-88.322 0 -3.20198418442e-12)
(-88.322 0 -3.53981628828e-14)
(-88.322 0 4.11600702506e-14)
(-88.322 0 2.09679276514e-12)
(-88.322 0 1.09181816731e-13)
(-88.322 0 4.42137804739e-12)
(-88.322 0 -8.2558859518e-14)
(-88.322 0 2.59753239057e-12)
(-88.322 0 2.68910903267e-12)
(-88.322 0 4.46563036165e-12)
(-88.322 0 6.82338366116e-14)
(-88.322 0 -3.19322234024e-12)
(-88.322 0 3.18824443242e-13)
(-88.322 0 -2.54678883859e-12)
(-88.322 0 3.26613787362e-12)
(-88.322 0 -1.0502507598e-13)
(-88.322 0 -6.80283895871e-13)
(-88.322 0 -6.98179579407e-12)
(-88.322 0 1.39716585407e-13)
(-88.322 0 1.6167685305e-14)
(-88.322 0 1.85742684524e-13)
(-88.322 0 1.08099635773e-11)
(-88.322 0 -2.92117939078e-12)
(-88.322 0 -2.35008681524e-12)
(-88.322 0 -1.34919434082e-13)
(-88.322 0 4.50171184242e-13)
(-88.322 0 2.48519340428e-12)
(-88.322 0 -1.22744576036e-12)
(-88.322 0 -4.72388895807e-14)
(-88.322 0 -1.13817312845e-12)
(-88.322 0 3.61350180104e-12)
(-88.322 0 4.591401127e-12)
(-88.322 0 1.06516293551e-13)
(-88.322 0 8.14487822158e-12)
(-88.322 0 -1.98812009646e-12)
(-88.322 0 1.52159237825e-13)
(-88.322 0 -1.50217098191e-12)
(-88.322 0 -1.07714640432e-12)
(-88.322 0 1.88082544906e-13)
(-88.322 0 -1.61290498978e-13)
(-88.322 0 8.6244622798e-12)
(-88.322 0 7.25387177087e-12)
(-88.322 0 4.83554707294e-12)
(-88.322 0 6.84196366e-13)
(-88.322 0 9.08604304745e-12)
(-88.322 0 1.61512807826e-12)
(-88.322 0 -1.43738845583e-12)
(-88.322 0 5.54158392364e-13)
(-88.322 0 1.9735494856e-13)
(-88.322 0 2.98448283755e-12)
(-88.322 0 7.04551100056e-12)
(-88.322 0 -1.4121670907e-11)
(-88.322 0 2.65553537185e-12)
(-88.322 0 8.89856638025e-12)
(-88.322 0 5.31156662435e-12)
(-88.322 0 4.20558396021e-12)
(-88.322 0 -7.18155383485e-12)
(-88.322 0 1.69838624242e-11)
(-88.322 0 2.54753331823e-12)
(-88.322 0 3.95827882004e-12)
(-88.322 0 -4.25400785745e-12)
(-88.322 0 -1.47973120615e-12)
(-88.322 0 1.85567441995e-12)
(-88.322 0 -2.25755642621e-13)
(-88.322 0 -2.05720906844e-12)
(-88.322 0 -1.47485445045e-14)
(-88.322 0 -7.67674533675e-13)
(-88.322 0 3.50644286162e-12)
(-88.322 0 2.05531794712e-12)
(-88.322 0 3.35891488564e-13)
(-88.322 0 1.14627696629e-12)
(-88.322 0 -6.93350840389e-12)
(-88.322 0 -8.776475294e-12)
(-88.322 0 -8.68648819874e-13)
(-88.322 0 6.44112272082e-14)
(-88.322 0 2.34624943292e-14)
(-88.322 0 1.67936504153e-12)
(-88.322 0 6.3098554901e-13)
(-88.322 0 -2.33432571443e-13)
(-88.322 0 1.49144800973e-12)
(-88.322 0 -2.71615569967e-14)
(-88.322 0 -4.02990915847e-13)
(-88.322 0 9.31783460208e-13)
(-88.322 0 -3.93799217475e-12)
(-88.322 0 -1.08931618124e-13)
(-88.322 0 2.36698797107e-14)
(-88.322 0 2.61719410553e-13)
(-88.322 0 1.01841239898e-12)
(-88.322 0 1.21207760028e-12)
(-88.322 0 1.59047763455e-12)
(-88.322 0 3.31018590763e-13)
(-88.322 0 2.15972284295e-12)
(-88.322 0 -3.70863636331e-12)
(-88.322 0 -5.22717921668e-12)
(-88.322 0 -2.03806107454e-11)
(-88.322 0 -3.6352848878e-12)
(-88.322 0 3.60605832192e-12)
(-88.322 0 -1.14997308378e-11)
(-88.322 0 -7.80945325603e-12)
(-88.322 0 4.21135555936e-12)
(-88.322 0 1.20293495363e-12)
(-88.322 0 9.32866681856e-13)
(-88.322 0 3.05626264426e-12)
(-88.322 0 4.25972772913e-14)
(-88.322 0 6.31426384088e-14)
(-88.322 0 5.2937282823e-14)
(-88.322 0 9.88373416863e-13)
(-88.322 0 4.78818303701e-12)
(-88.322 0 -4.76277089426e-13)
(-88.322 0 -1.85403613189e-12)
(-88.322 0 -2.0946121135e-13)
(-88.322 0 4.85896327253e-13)
(-88.322 0 5.06909199381e-12)
(-88.322 0 -3.70971008136e-12)
(-88.322 0 -1.1086466818e-12)
(-88.322 0 -1.22178218227e-13)
(-88.322 0 -4.26142153323e-12)
(-88.322 0 4.05301540913e-12)
(-88.322 0 -8.78205098736e-12)
(-88.322 0 6.48088839726e-12)
(-88.322 0 9.21036776083e-13)
(-88.322 0 5.82219591663e-12)
(-88.322 0 2.8359810724e-12)
(-88.322 0 4.15465535786e-13)
(-88.322 0 -7.04852927434e-13)
(-88.322 0 -1.19971125891e-15)
(-88.322 0 6.13576280171e-13)
(-88.322 0 1.52413002632e-12)
(-88.322 0 -1.15800016833e-12)
(-88.322 0 5.93717953701e-12)
(-88.322 0 7.05050274034e-12)
(-88.322 0 -3.51688204329e-12)
(-88.322 0 4.12008133859e-13)
(-88.322 0 1.96831281653e-12)
(-88.322 0 -1.09377364961e-12)
(-88.322 0 4.35650255545e-12)
(-88.322 0 2.34715585006e-12)
(-88.322 0 -1.03926770903e-12)
(-88.322 0 8.59882854333e-12)
(-88.322 0 1.01073235561e-11)
(-88.322 0 3.14180563263e-12)
(-88.322 0 7.02653664957e-13)
(-88.322 0 -9.75392635137e-13)
(-88.322 0 1.34920676136e-12)
(-88.322 0 8.56140329185e-12)
(-88.322 0 7.74062737367e-12)
(-88.322 0 -2.04710900516e-12)
(-88.322 0 -5.48007289255e-12)
(-88.322 0 -6.24856360626e-12)
(-88.322 0 6.98781890916e-12)
(-88.322 0 1.86732469836e-14)
(-88.322 0 -1.21604887978e-12)
(-88.322 0 8.12152628887e-12)
(-88.322 0 3.66267057909e-12)
(-88.322 0 -2.66751470048e-12)
(-88.322 0 -1.78715961566e-12)
(-88.322 0 1.2998292806e-13)
(-88.322 0 9.65285797017e-14)
(-88.322 0 3.70361404265e-13)
(-88.322 0 -3.94968752468e-13)
(-88.322 0 1.54895285208e-12)
(-88.322 0 5.09156235045e-13)
(-88.322 0 2.0341927726e-14)
(-88.322 0 3.45039526855e-12)
(-88.322 0 9.70490944266e-13)
(-88.322 0 -1.71323105552e-12)
(-88.322 0 1.09813382375e-13)
(-88.322 0 1.18903053538e-13)
(-88.322 0 -1.67388984163e-13)
(-88.322 0 -1.53826507142e-14)
(-88.322 0 -4.97932395172e-13)
(-88.322 0 3.38065045442e-12)
(-88.322 0 -1.82063118341e-12)
(-88.322 0 -4.5524008193e-14)
(-88.322 0 1.70612867077e-13)
(-88.322 0 2.39032983561e-12)
(-88.322 0 5.88732057213e-12)
(-88.322 0 -3.98047136282e-12)
(-88.322 0 -1.8994789361e-12)
(-88.322 0 5.69145401829e-12)
(-88.322 0 4.90640691283e-13)
(-88.322 0 1.10055629955e-12)
(-88.322 0 4.59622744778e-12)
(-88.322 0 -3.24797763258e-12)
(-88.322 0 4.05599709151e-12)
(-88.322 0 -7.11705895719e-12)
(-88.322 0 5.65417517863e-12)
(-88.322 0 -3.38688869066e-12)
(-88.322 0 3.28338486796e-12)
(-88.322 0 7.16164389727e-13)
(-88.322 0 -2.44263856383e-12)
(-88.322 0 2.19305712608e-13)
(-88.322 0 1.98456612828e-13)
(-88.322 0 -3.36636156399e-14)
(-88.322 0 -2.02457165288e-12)
(-88.322 0 -2.47520098568e-12)
(-88.322 0 -6.86210375395e-14)
(-88.322 0 -2.58341682313e-13)
(-88.322 0 1.08801785842e-12)
(-88.322 0 -1.92694319671e-12)
(-88.322 0 -5.93146957008e-12)
(-88.322 0 1.22175564748e-12)
(-88.322 0 2.31066270366e-14)
(-88.322 0 -5.8458401084e-15)
(-88.322 0 -1.43808334741e-12)
(-88.322 0 -1.39331285198e-12)
(-88.322 0 4.16175130965e-13)
(-88.322 0 -1.96983649688e-13)
(-88.322 0 -8.2427220612e-17)
(-88.322 0 -1.4015772159e-12)
(-88.322 0 -4.10518704093e-13)
(-88.322 0 4.14621810693e-12)
(-88.322 0 -1.83118751335e-12)
(-88.322 0 -4.578850924e-14)
(-88.322 0 -1.90380570652e-12)
(-88.322 0 -4.50302634958e-13)
(-88.322 0 -1.29329268909e-12)
(-88.322 0 1.46684207295e-12)
(-88.322 0 -5.59166899881e-12)
(-88.322 0 -2.44166373962e-12)
(-88.322 0 8.37141268852e-12)
(-88.322 0 2.53927638783e-12)
(-88.322 0 -1.34163794769e-12)
(-88.322 0 1.04703459267e-13)
(-88.322 0 -2.61571361479e-12)
(-88.322 0 1.62977306181e-11)
(-88.322 0 6.89669307621e-15)
(-88.322 0 2.76930055606e-14)
(-88.322 0 2.31325690283e-12)
(-88.322 0 2.12993914056e-13)
(-88.322 0 4.35913909737e-15)
(-88.322 0 1.04502453527e-12)
(-88.322 0 4.26716697398e-12)
(-88.322 0 -1.39026022197e-13)
(-88.322 0 -3.59875739672e-15)
(-88.322 0 5.14887843823e-15)
(-88.322 0 2.6933244887e-13)
(-88.322 0 2.2491716207e-14)
(-88.322 0 9.87549238752e-13)
(-88.322 0 1.05742268075e-13)
(-88.322 0 -4.28545330232e-14)
(-88.322 0 -1.89193439894e-12)
(-88.322 0 4.62209886822e-13)
(-88.322 0 3.04748151061e-12)
(-88.322 0 1.86291427749e-12)
(-88.322 0 -3.66702426068e-13)
(-88.322 0 9.33882616169e-12)
(-88.322 0 -2.59981569985e-12)
(-88.322 0 -1.92427099279e-14)
(-88.322 0 2.27281957627e-13)
(-88.322 0 6.40214198488e-13)
(-88.322 0 -1.96897519062e-12)
(-88.322 0 5.53677121351e-12)
(-88.322 0 4.51704650469e-13)
(-88.322 0 -6.73344389569e-13)
(-88.322 0 3.28214465647e-13)
(-88.322 0 4.24127438216e-12)
(-88.322 0 -5.62304742326e-12)
(-88.322 0 -7.03794707983e-12)
(-88.322 0 3.53779757414e-12)
(-88.322 0 -3.99439300046e-13)
(-88.322 0 -3.86453089038e-12)
(-88.322 0 9.78999578799e-13)
(-88.322 0 -1.8830080767e-12)
(-88.322 0 3.65956760825e-12)
(-88.322 0 -3.19772967897e-12)
(-88.322 0 -8.21908605569e-12)
(-88.322 0 -7.15336636006e-12)
(-88.322 0 -1.61451288515e-12)
(-88.322 0 1.18252584207e-12)
(-88.322 0 7.7239622081e-13)
(-88.322 0 -1.09703338272e-12)
(-88.322 0 -6.07022751562e-12)
(-88.322 0 -7.19123583404e-13)
(-88.322 0 2.40853881786e-12)
(-88.322 0 4.96406277765e-12)
(-88.322 0 4.00178388048e-12)
(-88.322 0 -7.11556416401e-12)
(-88.322 0 -2.25074300721e-12)
(-88.322 0 1.63101122028e-12)
(-88.322 0 -8.12478235228e-12)
(-88.322 0 -3.66882702679e-12)
(-88.322 0 4.14579938418e-13)
(-88.322 0 3.39221162487e-12)
(-88.322 0 -4.09562604791e-14)
(-88.322 0 -5.09015280734e-13)
(-88.322 0 -5.49969847503e-13)
(-88.322 0 6.35237231616e-14)
(-88.322 0 4.05608074197e-12)
(-88.322 0 -3.97707763843e-13)
(-88.322 0 1.80978306487e-12)
(-88.322 0 -3.4003024776e-12)
(-88.322 0 -1.29930451278e-12)
(-88.322 0 3.3273423432e-12)
(-88.322 0 -3.23015905048e-14)
(-88.322 0 -5.28732982226e-13)
(-88.322 0 -4.10408198924e-12)
(-88.322 0 -5.78937087563e-13)
(-88.322 0 5.08883171353e-13)
(-88.322 0 -3.32042410237e-12)
(-88.322 0 1.54347812265e-12)
(-88.322 0 4.25360214458e-14)
(-88.322 0 -5.98955610772e-13)
(-88.322 0 -2.40266710163e-12)
(-88.322 0 -5.85169206469e-12)
(-88.322 0 2.88402438014e-12)
(-88.322 0 1.62432285354e-12)
(-88.322 0 -8.46283002778e-12)
(-88.322 0 -2.43920861287e-12)
(-88.322 0 -1.35429043196e-12)
(-88.322 0 -7.55052178625e-12)
(-88.322 0 3.17934568002e-12)
(-88.322 0 -4.04420529421e-12)
(-88.322 0 6.97878042568e-12)
(-88.322 0 -5.67961611444e-12)
(-88.322 0 3.42722760699e-12)
(-88.322 0 1.16226449645e-13)
(-88.322 0 6.65501006691e-14)
(-88.322 0 2.36439518333e-12)
(-88.322 0 3.05844508371e-14)
(-88.322 0 -4.10436747347e-14)
(-88.322 0 1.8148625012e-12)
(-88.322 0 1.91384065605e-12)
(-88.322 0 -1.05773912224e-12)
(-88.322 0 -5.48404483072e-14)
(-88.322 0 -2.48318993352e-12)
(-88.322 0 -2.32022642543e-12)
(-88.322 0 7.0810322397e-12)
(-88.322 0 1.48105916889e-11)
(-88.322 0 -9.74470598225e-13)
(-88.322 0 -5.36968176687e-14)
(-88.322 0 -7.75145206255e-14)
(-88.322 0 -4.09332072039e-13)
(-88.322 0 1.76367754957e-12)
(-88.322 0 -6.36556443526e-14)
(-88.322 0 1.56121296019e-13)
(-88.322 0 -2.86782743129e-14)
(-88.322 0 1.44660844857e-12)
(-88.322 0 4.62654015225e-13)
(-88.322 0 1.59605445705e-13)
(-88.322 0 1.80414583338e-12)
(-88.322 0 -6.87363980103e-16)
(-88.322 0 1.89168429443e-12)
(-88.322 0 1.41795896733e-12)
(-88.322 0 -7.59027014921e-13)
(-88.322 0 3.09879292591e-12)
(-88.322 0 1.87716477716e-12)
(-88.322 0 1.67598910109e-13)
(-88.322 0 -3.5514326925e-12)
(-88.322 0 4.79292307267e-12)
(-88.322 0 3.07054334842e-12)
(-88.322 0 2.58173506318e-12)
(-88.322 0 -3.19481790917e-13)
(-88.322 0 -1.98907554651e-11)
(-88.322 0 3.15124505491e-12)
(-88.322 0 4.22512504538e-12)
(-88.322 0 -9.07472887638e-13)
(-88.322 0 -1.06141964819e-12)
(-88.322 0 4.22367052486e-12)
(-88.322 0 -1.17256739177e-12)
(-88.322 0 -4.24636031104e-12)
(-88.322 0 1.01683574315e-13)
(-88.322 0 7.08174218648e-13)
(-88.322 0 4.20282979953e-12)
(-88.322 0 -5.0646728221e-14)
(-88.322 0 3.09642286104e-12)
(-88.322 0 -7.77390877542e-13)
(-88.322 0 -1.12122040855e-12)
(-88.322 0 4.20166631485e-12)
(-88.322 0 1.91924942488e-12)
(-88.322 0 3.05903007233e-12)
(-88.322 0 -3.01634773316e-12)
(-88.322 0 2.18851054974e-12)
(-88.322 0 -3.54173243888e-12)
(-88.322 0 -6.44012343192e-13)
(-88.322 0 -3.66301741326e-12)
(-88.322 0 1.66712055318e-12)
(-88.322 0 -1.66168603996e-11)
(-88.322 0 -6.22651780626e-12)
(-88.322 0 -1.40546619906e-13)
(-88.322 0 -2.96780142294e-12)
(-88.322 0 1.38453698765e-12)
(-88.322 0 -2.58286373272e-12)
(-88.322 0 -3.21887122601e-12)
(-88.322 0 2.03660263967e-12)
(-88.322 0 7.23701399283e-13)
(-88.322 0 -2.86686145202e-12)
(-88.322 0 -6.70094922225e-12)
(-88.322 0 -2.17074851875e-12)
(-88.322 0 -2.59118060164e-12)
(-88.322 0 1.6843929138e-12)
(-88.322 0 -2.37657785126e-12)
(-88.322 0 -2.04547532776e-12)
(-88.322 0 5.52450474007e-13)
(-88.322 0 -4.0815776643e-13)
(-88.322 0 -1.12823848418e-12)
(-88.322 0 -1.69995208673e-12)
(-88.322 0 -6.80512640818e-13)
(-88.322 0 6.24169118969e-13)
(-88.322 0 -4.29676408597e-12)
(-88.322 0 -1.85466590973e-12)
(-88.322 0 4.59039167583e-13)
(-88.322 0 -6.43272003726e-14)
(-88.322 0 -5.86033309089e-12)
(-88.322 0 -1.04748338819e-11)
(-88.322 0 -3.95738553078e-12)
(-88.322 0 -3.26059501941e-13)
(-88.322 0 -4.64588100326e-12)
(-88.322 0 -1.32281668927e-13)
(-88.322 0 -5.05643226423e-12)
(-88.322 0 -9.14729080074e-12)
(-88.322 0 -3.00129544999e-12)
(-88.322 0 1.30742086526e-13)
(-88.322 0 -8.66781015292e-12)
(-88.322 0 -7.29707643139e-12)
(-88.322 0 -1.08231062966e-11)
(-88.322 0 4.12582207458e-13)
(-88.322 0 1.40997487479e-11)
(-88.322 0 -6.28016117797e-12)
(-88.322 0 -6.8330214357e-12)
(-88.322 0 1.41346122629e-12)
(-88.322 0 1.08296853249e-13)
(-88.322 0 -7.16079487808e-12)
(-88.322 0 -9.27099175836e-12)
(-88.322 0 1.28615045511e-11)
(-88.322 0 -6.25021111563e-12)
(-88.322 0 -3.21663759888e-15)
(-88.322 0 -8.47866979201e-12)
(-88.322 0 9.5764660029e-12)
(-88.322 0 -8.55868366405e-14)
(-88.322 0 1.56233654859e-12)
(-88.322 0 3.35955849544e-14)
(-88.322 0 -6.78245402957e-12)
(-88.322 0 -1.31349751099e-11)
(-88.322 0 -7.78674201618e-12)
(-88.322 0 7.93723614888e-12)
(-88.322 0 4.20151971484e-12)
(-88.322 0 1.28089305691e-11)
(-88.322 0 4.1553227392e-13)
(-88.322 0 -5.58497752693e-12)
(-88.322 0 4.75646991664e-12)
(-88.322 0 -5.86816508827e-13)
(-88.322 0 -8.93722879281e-13)
(-88.322 0 -1.87962363832e-12)
(-88.322 0 -5.80497171049e-13)
(-88.322 0 -2.21562298915e-13)
(-88.322 0 -2.51105212189e-13)
(-88.322 0 -5.64109390344e-12)
(-88.322 0 1.00399027003e-12)
(-88.322 0 -5.32141611264e-12)
(-88.322 0 3.06266486811e-12)
(-88.322 0 2.68980157187e-13)
(-88.322 0 -2.08008836195e-12)
(-88.322 0 -5.10504541129e-12)
(-88.322 0 -9.07523802443e-12)
(-88.322 0 -7.03142751952e-12)
(-88.322 0 -9.32633053379e-12)
(-88.322 0 -2.67700135845e-12)
(-88.322 0 4.38716058857e-13)
(-88.322 0 1.08196745578e-12)
(-88.322 0 -4.82234149825e-13)
(-88.322 0 -5.41525291666e-12)
(-88.322 0 -2.12186748321e-12)
(-88.322 0 3.65153772908e-12)
(-88.322 0 2.55778703865e-12)
(-88.322 0 7.41456758945e-12)
(-88.322 0 -4.41220199701e-12)
(-88.322 0 -4.23972030913e-13)
(-88.322 0 -3.6025522481e-13)
(-88.322 0 2.698298915e-12)
(-88.322 0 6.40177332067e-12)
(-88.322 0 2.29650893365e-13)
(-88.322 0 1.70055787035e-12)
(-88.322 0 5.54739899469e-13)
(-88.322 0 -1.48301954414e-12)
(-88.322 0 -4.00418829003e-13)
(-88.322 0 2.59288183925e-15)
(-88.322 0 -7.08091612647e-12)
(-88.322 0 6.04919991762e-12)
(-88.322 0 3.92294271444e-12)
(-88.322 0 6.94959027456e-12)
(-88.322 0 1.22159480149e-11)
(-88.322 0 -6.54353600187e-12)
(-88.322 0 3.58018708967e-12)
(-88.322 0 4.27671187675e-13)
(-88.322 0 -1.71243774056e-13)
(-88.322 0 2.84597292643e-13)
(-88.322 0 -2.64448560772e-12)
(-88.322 0 2.36998442637e-12)
(-88.322 0 -1.91215042756e-12)
(-88.322 0 7.20995132968e-13)
(-88.322 0 3.70700786113e-12)
(-88.322 0 2.54747911951e-12)
(-88.322 0 1.59377952222e-12)
(-88.322 0 -2.96110596967e-12)
(-88.322 0 -4.61580598276e-12)
(-88.322 0 3.52082452972e-12)
(-88.322 0 -1.36518079915e-12)
(-88.322 0 4.04109761862e-12)
(-88.322 0 7.8211870908e-12)
(-88.322 0 5.14005618506e-12)
(-88.322 0 5.87036004235e-12)
(-88.322 0 -2.1781106057e-12)
(-88.322 0 -4.87849645372e-14)
(-88.322 0 -2.81290305024e-12)
(-88.322 0 7.66516929929e-12)
(-88.322 0 3.41531307668e-12)
(-88.322 0 -6.17240738047e-14)
(-88.322 0 -1.99162450675e-12)
(-88.322 0 -1.30526147909e-12)
(-88.322 0 2.32330559023e-12)
(-88.322 0 -1.12424283407e-12)
(-88.322 0 -4.8753536807e-14)
(-88.322 0 -1.65107396814e-12)
(-88.322 0 8.21429502054e-13)
(-88.322 0 3.49057119919e-12)
(-88.322 0 2.04098313833e-12)
(-88.322 0 4.90345985741e-13)
(-88.322 0 -5.93983282784e-12)
(-88.322 0 3.97822653839e-13)
(-88.322 0 -3.4716232889e-12)
(-88.322 0 -7.20528421765e-13)
(-88.322 0 -2.02266509997e-12)
(-88.322 0 -2.39725739185e-13)
(-88.322 0 -1.86387893944e-13)
(-88.322 0 9.96279372917e-13)
(-88.322 0 -5.32869492551e-13)
(-88.322 0 4.26504202658e-12)
(-88.322 0 1.33337603025e-13)
(-88.322 0 -4.0275803072e-13)
(-88.322 0 -4.04307399002e-13)
(-88.322 0 4.71266370678e-12)
(-88.322 0 1.03826845776e-11)
(-88.322 0 2.25237894289e-12)
(-88.322 0 3.59199290712e-13)
(-88.322 0 4.66934170979e-12)
(-88.322 0 1.50889736304e-12)
(-88.322 0 5.11934728683e-12)
(-88.322 0 9.13909757265e-12)
(-88.322 0 2.66583933899e-12)
(-88.322 0 -3.4745614053e-14)
(-88.322 0 1.05130397455e-11)
(-88.322 0 7.61173463029e-12)
(-88.322 0 1.11314165644e-11)
(-88.322 0 -3.00100196768e-13)
(-88.322 0 -1.24967270265e-11)
(-88.322 0 6.17529719263e-12)
(-88.322 0 6.43019631525e-12)
(-88.322 0 -1.40711781182e-12)
(-88.322 0 -6.66892201276e-13)
(-88.322 0 6.73504765089e-12)
(-88.322 0 9.01926824792e-12)
(-88.322 0 -1.29247073162e-11)
(-88.322 0 6.68985871499e-12)
(-88.322 0 1.5087399421e-13)
(-88.322 0 8.1112792492e-12)
(-88.322 0 -9.57986584347e-12)
(-88.322 0 3.37162147453e-14)
(-88.322 0 -1.60654322678e-12)
(-88.322 0 -6.24939568835e-13)
(-88.322 0 6.22489071551e-12)
(-88.322 0 1.26250161504e-11)
(-88.322 0 5.52972757718e-12)
(-88.322 0 -6.73770479961e-12)
(-88.322 0 -1.63717848892e-12)
(-88.322 0 -1.7399307472e-11)
(-88.322 0 6.47893489095e-12)
(-88.322 0 2.3966767316e-12)
(-88.322 0 -5.02793060623e-13)
(-88.322 0 -5.65750821175e-12)
(-88.322 0 9.06858823663e-13)
(-88.322 0 -1.84287663352e-13)
(-88.322 0 4.4157517684e-13)
(-88.322 0 4.26857491747e-12)
(-88.322 0 -2.04706807383e-12)
(-88.322 0 5.44612031116e-12)
(-88.322 0 -8.87712937491e-13)
(-88.322 0 4.53094762962e-12)
(-88.322 0 -3.95595180525e-12)
(-88.322 0 -3.76167715063e-12)
(-88.322 0 -1.69418048758e-14)
(-88.322 0 2.47536217041e-12)
(-88.322 0 9.32894637481e-12)
(-88.322 0 1.81625407217e-12)
(-88.322 0 3.40139125085e-13)
(-88.322 0 -8.66370779908e-13)
(-88.322 0 -3.99182138409e-13)
(-88.322 0 -1.08164442764e-12)
(-88.322 0 6.50654038816e-13)
(-88.322 0 4.37723987036e-12)
(-88.322 0 2.27472735241e-12)
(-88.322 0 -5.10286297185e-12)
(-88.322 0 -2.596795909e-12)
(-88.322 0 -7.03787669677e-12)
(-88.322 0 3.3546243418e-12)
(-88.322 0 -9.22816959402e-14)
(-88.322 0 1.65538794164e-13)
(-88.322 0 -2.71158381177e-12)
(-88.322 0 -6.77371796742e-12)
(-88.322 0 -2.22415364191e-12)
(-88.322 0 -1.74850275472e-12)
(-88.322 0 -2.94382890431e-13)
(-88.322 0 1.28667686959e-12)
(-88.322 0 1.88271017193e-13)
(-88.322 0 -1.21224433662e-12)
(-88.322 0 4.30931645316e-12)
(-88.322 0 -8.06960099778e-12)
(-88.322 0 -8.67026829071e-12)
(-88.322 0 -7.62159992654e-12)
(-88.322 0 7.32340487125e-12)
(-88.322 0 -3.1574677455e-12)
(-88.322 0 -1.02809658118e-11)
(-88.322 0 4.4529284775e-12)
(-88.322 0 1.45188416707e-12)
(-88.322 0 -1.72978641222e-12)
(-88.322 0 2.34257944561e-12)
(-88.322 0 -5.84699079617e-12)
(-88.322 0 -3.73905266638e-12)
(-88.322 0 -2.07871504542e-12)
(-88.322 0 -5.57868558242e-12)
(-88.322 0 -2.5866735452e-12)
(-88.322 0 -1.40269290032e-12)
(-88.322 0 3.18594512698e-12)
(-88.322 0 5.03275466873e-12)
(-88.322 0 -4.94669632204e-12)
(-88.322 0 1.08839198014e-12)
(-88.322 0 -5.81637755226e-12)
(-88.322 0 7.97561063073e-12)
(-88.322 0 -5.42303956025e-12)
(-88.322 0 -9.73419867581e-12)
(-88.322 0 -3.48228811037e-12)
(-88.322 0 -2.39975542593e-12)
(-88.322 0 7.18168989622e-13)
(-88.322 0 2.74477187128e-13)
(-88.322 0 -7.34959960212e-13)
(-88.322 0 1.43849008262e-13)
(-88.322 0 1.01213064105e-13)
(-88.322 0 -3.07063866666e-12)
(-88.322 0 -5.31490248031e-13)
(-88.322 0 -6.78063347949e-13)
(-88.322 0 -1.81388268996e-12)
(-88.322 0 -8.51835454675e-13)
(-88.322 0 1.94191738103e-12)
(-88.322 0 3.15924905796e-14)
(-88.322 0 -4.4719590032e-15)
(-88.322 0 1.94998536867e-12)
(-88.322 0 6.09503716807e-12)
(-88.322 0 -5.23819764717e-12)
(-88.322 0 -9.13501629608e-12)
(-88.322 0 1.22288243511e-12)
(-88.322 0 1.99133014741e-12)
(-88.322 0 2.30924375105e-13)
(-88.322 0 3.73449225808e-13)
(-88.322 0 -1.71112803225e-12)
(-88.322 0 9.44430581062e-14)
(-88.322 0 -2.43876081476e-13)
(-88.322 0 -1.44547705028e-13)
(-88.322 0 -1.55215537542e-12)
(-88.322 0 -4.16999779551e-13)
(-88.322 0 1.48254925732e-12)
(-88.322 0 1.64950418125e-14)
(-88.322 0 -1.52676572139e-13)
(-88.322 0 -1.89862323616e-12)
(-88.322 0 -5.51179815117e-13)
(-88.322 0 -4.74046482749e-12)
(-88.322 0 -1.03704264455e-13)
(-88.322 0 1.70217856264e-16)
(-88.322 0 2.31777910856e-13)
(-88.322 0 -2.04553122019e-15)
(-88.322 0 -1.95972598905e-14)
(-88.322 0 -3.68780890538e-14)
(-88.322 0 -8.08822747955e-14)
(-88.322 0 -3.70465830897e-12)
(-88.322 0 -7.06274252394e-14)
(-88.322 0 1.97733116368e-14)
(-88.322 0 -3.73685121974e-14)
(-88.322 0 8.12077494029e-15)
(-88.322 0 5.55216867027e-13)
(-88.322 0 5.84028850336e-15)
(-88.322 0 1.09392965912e-14)
(-88.322 0 3.47097638577e-14)
(-88.322 0 -4.8147122756e-13)
(-88.322 0 -1.65588099944e-13)
(-88.322 0 -4.15065280432e-14)
(-88.322 0 1.56394359711e-14)
(-88.322 0 -8.96217243654e-15)
(-88.322 0 4.67496896721e-14)
(-88.322 0 5.89356885656e-13)
(-88.322 0 1.22384944944e-13)
(-88.322 0 -5.39887003608e-14)
(-88.322 0 -5.23998121791e-14)
(-88.322 0 -1.04125527773e-14)
(-88.322 0 -2.02488113133e-13)
(-88.322 0 1.64572156222e-14)
(-88.322 0 -3.57815059157e-15)
(-88.322 0 4.71324399064e-13)
(-88.322 0 5.89421350141e-12)
(-88.322 0 6.93720464371e-12)
(-88.322 0 2.53461821482e-12)
(-88.322 0 -1.34332767051e-12)
(-88.322 0 5.64468190051e-12)
(-88.322 0 -4.0467766283e-12)
(-88.322 0 1.39538040144e-12)
(-88.322 0 5.17067705066e-12)
(-88.322 0 -7.80396648244e-14)
(-88.322 0 7.10838330403e-13)
(-88.322 0 9.56182482079e-13)
(-88.322 0 3.57400636545e-12)
(-88.322 0 2.15342619369e-12)
(-88.322 0 7.12956625287e-12)
(-88.322 0 3.64615549504e-12)
(-88.322 0 2.81845333796e-12)
(-88.322 0 6.77041156319e-12)
(-88.322 0 9.94864381706e-12)
(-88.322 0 1.24027655466e-13)
(-88.322 0 -4.20020605454e-13)
(-88.322 0 -3.09498301933e-12)
(-88.322 0 -1.33245992132e-12)
(-88.322 0 -4.98731355823e-13)
(-88.322 0 1.29798087841e-12)
(-88.322 0 8.89890295807e-14)
(-88.322 0 -5.11898445651e-12)
(-88.322 0 4.1354922178e-13)
(-88.322 0 -3.77714599237e-12)
(-88.322 0 -1.20437686542e-12)
(-88.322 0 2.34703794903e-13)
(-88.322 0 2.54000590637e-12)
(-88.322 0 6.29046815615e-13)
(-88.322 0 1.37600294747e-13)
(-88.322 0 3.85631573815e-12)
(-88.322 0 -1.09958872065e-12)
(-88.322 0 3.8997418983e-13)
(-88.322 0 6.37929383681e-13)
(-88.322 0 -5.64674976575e-12)
(-88.322 0 4.38036683543e-12)
(-88.322 0 5.341055433e-12)
(-88.322 0 2.96472740396e-12)
(-88.322 0 -1.17912026171e-11)
(-88.322 0 5.17508916524e-12)
(-88.322 0 6.49356826317e-12)
(-88.322 0 -4.40214973399e-12)
(-88.322 0 -8.79757581562e-13)
(-88.322 0 1.27641628024e-12)
(-88.322 0 -5.42901242861e-13)
(-88.322 0 7.56448237922e-12)
(-88.322 0 5.9309855454e-12)
(-88.322 0 7.29060862333e-13)
(-88.322 0 1.56774654066e-12)
(-88.322 0 2.4265391915e-12)
(-88.322 0 2.7268495965e-13)
(-88.322 0 3.4752953463e-13)
(-88.322 0 5.86868637457e-14)
(-88.322 0 1.27655347075e-12)
(-88.322 0 -1.13520810088e-12)
(-88.322 0 2.40397107015e-12)
(-88.322 0 -8.51018747707e-12)
(-88.322 0 5.39147416903e-14)
(-88.322 0 8.35446937812e-12)
(-88.322 0 3.192317805e-12)
(-88.322 0 3.05170477652e-12)
(-88.322 0 3.51169976112e-12)
(-88.322 0 -8.35762795911e-12)
(-88.322 0 -2.84623620424e-12)
(-88.322 0 1.00130370308e-12)
(-88.322 0 1.80207103256e-12)
(-88.322 0 4.21852277556e-12)
(-88.322 0 1.16648622007e-12)
(-88.322 0 -2.87622644515e-12)