/*--------------------------------*- C++ -*----------------------------------*\
  =========                 |
  \\      /  F ield         | OpenFOAM: The Open Source CFD Toolbox
   \\    /   O peration     | Website:  https://openfoam.org
    \\  /    A nd           | Version:  6
     \\/     M anipulation  |
\*---------------------------------------------------------------------------*/
FoamFile
{
    version     2.0;
    format      ascii;
    class       volScalarField;
    location    "4.96e-05";
    object      p;
}
// * * * * * * * * * * * * * * * * * * * * * * * * * * * * * * * * * * * * * //

dimensions      [1 -1 -2 0 0 0 0];

internalField   nonuniform List<scalar> 
8192
(
6000000.0008
5999999.99938
6000000.00028
6000000.00125
6000000.00512
5999999.99803
6000000.00197
5999999.99924
6000000.00062
5999999.99983
6000000.00021
5999999.99985
6000000.00062
6000000.00139
6000000.00077
6000000.00069
6000000.00053
5999999.99784
5999999.99899
6000000.0006
5999999.99862
5999999.99736
6000000.0017
5999999.99985
5999999.99945
5999999.9999
5999999.99778
5999999.99901
5999999.99823
5999999.99882
6000000.00025
6000000.00075
5999999.99637
5999999.99392
6000000.00773
6000000.00748
5999999.99914
6000000.00427
5999999.99969
5999999.99671
6000000.00434
5999999.99733
6000000.00041
5999999.99988
6000000.00057
6000000.00048
6000000.00025
5999999.9996
5999999.99929
6000000.00167
5999999.99662
6000000.00092
6000000.00344
5999999.99548
5999999.99596
6000000.00119
5999999.99999
6000000.0035
6000000.00015
6000000.00624
5999999.99654
5999999.99718
5999999.99699
6000000.00283
6000000.00095
6000000.00237
6000000.00012
6000000.00421
5999999.99532
6000000.0034
5999999.99856
5999999.99625
6000000.0025
6000000.00271
6000000.0068
5999999.99673
5999999.99461
6000000.00637
6000000.00243
5999999.99518
5999999.99448
5999999.99193
6000000.00319
6000000.00582
6000000.00013
5999999.99925
6000000.00638
6000000.00466
5999999.99719
5999999.99716
5999999.99819
5999999.99828
5999999.99685
6000000.00483
5999999.9966
6000000.00254
6000000.00163
5999999.99946
6000000.00374
5999999.99821
5999999.9997
5999999.99988
5999999.9997
6000000.00034
5999999.99874
6000000.00028
6000000.00012
6000000
5999999.99998
5999999.99998
6000000.00015
6000000.0004
5999999.99939
6000000.00072
5999999.99959
6000000.0017
6000000.0001
5999999.99845
6000000.00071
5999999.99886
5999999.99906
5999999.9987
6000000.00029
5999999.99857
6000000.00018
5999999.99948
6000000.00028
6000000.00035
6000000.00628
6000000.00058
5999999.9963
6000000.0007
5999999.99831
5999999.99959
5999999.99997
5999999.99954
6000000.00093
6000000.0009
5999999.99853
6000000.00367
6000000.00075
6000000.00319
6000000.00436
5999999.99664
5999999.99708
5999999.99803
6000000.00209
6000000.0023
5999999.99984
5999999.99992
5999999.99877
6000000.00073
5999999.9946
6000000.0002
5999999.99684
5999999.99681
6000000.00178
6000000.00158
5999999.99824
5999999.99912
5999999.99978
5999999.99966
6000000.00009
6000000.00045
5999999.99959
6000000.00227
6000000.00018
6000000.00116
5999999.99747
6000000.00064
5999999.9971
6000000.00345
6000000.00193
6000000.0027
6000000.00193
6000000.00411
6000000.0022
6000000.0001
5999999.99406
6000000.00314
6000000.00188
5999999.99773
6000000.00064
5999999.99784
6000000.00308
6000000.00053
6000000.00209
5999999.99259
5999999.99254
6000000.00186
6000000.00625
6000000.00419
5999999.99927
5999999.9991
6000000.0014
6000000.00057
5999999.99984
6000000.00001
5999999.99997
6000000.00001
6000000.00015
6000000.00012
6000000
5999999.99725
5999999.99748
6000000.00317
5999999.99919
5999999.99997
6000000.00004
5999999.99998
6000000.00011
6000000.00031
6000000.00044
5999999.99951
5999999.99994
6000000.00015
5999999.99961
6000000.00056
5999999.99994
5999999.9949
6000000.00127
6000000.00195
5999999.99713
6000000.00093
6000000.00683
5999999.9941
5999999.9968
6000000.00528
6000000.00853
5999999.99184
5999999.99434
6000000.00129
6000000.00406
5999999.99529
6000000.00341
6000000.00044
6000000.00481
5999999.99823
6000000.00713
6000000.00357
5999999.99049
6000000.00052
6000000.00692
5999999.99863
6000000.00546
5999999.99335
5999999.9981
6000000.00125
6000000.00366
6000000.00406
6000000.00048
6000000.00241
6000000.00083
5999999.99901
5999999.99928
5999999.99923
5999999.99996
5999999.99869
6000000.00065
5999999.99774
6000000.00189
5999999.99813
5999999.99952
5999999.99921
5999999.99964
5999999.99987
5999999.99994
6000000.00159
6000000.00157
5999999.99623
6000000.00045
6000000.00207
5999999.99985
6000000.00313
5999999.99539
5999999.99671
6000000.00502
6000000.00056
5999999.9963
5999999.99452
5999999.99993
5999999.99364
5999999.99853
5999999.99464
6000000.00185
6000000.00602
5999999.99564
6000000.00066
5999999.99911
6000000.00143
5999999.99927
5999999.9993
6000000.00161
5999999.99774
6000000.00238
6000000.0003
6000000.00007
6000000.00017
6000000.00001
6000000.00001
6000000.00004
6000000.00037
5999999.99885
6000000.00152
5999999.99735
5999999.99963
5999999.99793
6000000.00218
6000000.00652
5999999.99871
5999999.99319
6000000.00335
6000000.00766
5999999.99753
6000000.00352
5999999.99822
6000000.00757
5999999.99626
5999999.99629
5999999.9961
6000000.0016
6000000.00276
5999999.99463
6000000.00209
6000000.00127
5999999.99974
6000000.00116
5999999.99799
6000000.00057
6000000.00074
5999999.99742
6000000.00258
6000000.00223
6000000.00094
6000000.00023
5999999.99974
5999999.99691
5999999.99718
6000000.00087
6000000.0012
5999999.99973
5999999.99815
5999999.99731
6000000.00065
5999999.99653
6000000.00079
5999999.99645
5999999.99425
5999999.99662
6000000.00371
5999999.99691
5999999.99635
6000000.00725
5999999.99873
6000000.00311
5999999.9998
5999999.99605
6000000.00391
5999999.99491
6000000.00407
5999999.99997
5999999.99926
6000000.00146
5999999.9997
6000000.00121
6000000.00009
6000000.0011
6000000.00171
5999999.99788
6000000.00327
6000000.00158
5999999.99686
6000000.00199
6000000.00035
6000000.00003
6000000.0039
5999999.99752
6000000.00426
6000000.00277
5999999.99401
5999999.99156
5999999.99521
5999999.99866
6000000.00146
6000000.00257
6000000.00341
5999999.99354
5999999.99135
6000000.00161
5999999.99582
5999999.9988
6000000.00503
5999999.99815
5999999.9987
6000000.00254
5999999.99624
5999999.99796
6000000.00649
5999999.99604
5999999.99898
5999999.9944
6000000.00238
6000000.00521
5999999.99946
5999999.99803
5999999.99163
6000000.00473
5999999.99887
6000000.00495
5999999.9991
5999999.99632
6000000.0035
5999999.9948
5999999.99392
6000000.0004
6000000.0028
5999999.99824
5999999.99809
5999999.99777
6000000.00183
6000000.00185
5999999.99716
6000000.00219
5999999.9984
5999999.99941
6000000.00121
5999999.99893
5999999.99956
5999999.99992
6000000.00076
6000000.00139
5999999.99719
6000000.0018
6000000.00053
5999999.99955
5999999.99755
6000000.00193
6000000.00045
5999999.99898
6000000.00197
6000000.00155
5999999.99757
5999999.99947
6000000.00038
5999999.99918
5999999.99633
5999999.99679
5999999.99867
5999999.9951
6000000.00292
6000000.00208
6000000.00013
6000000.00058
5999999.99894
6000000.00346
5999999.99801
6000000.00311
6000000.00202
5999999.99557
6000000.00454
6000000.00131
6000000.00049
6000000.00076
5999999.99809
6000000.00217
6000000.00038
5999999.99892
6000000.00145
6000000.00009
5999999.9992
5999999.99696
6000000.00494
5999999.9964
5999999.99958
6000000.002
5999999.99662
6000000.00409
5999999.99562
6000000.00287
5999999.99903
5999999.99902
5999999.99706
6000000.0026
6000000.00629
5999999.9981
5999999.99799
6000000.00129
6000000.00285
5999999.99784
5999999.99708
6000000.00641
5999999.99788
5999999.9997
5999999.99954
6000000.0009
6000000.00337
5999999.99764
6000000.00473
5999999.99835
5999999.99867
6000000.0021
6000000.00029
5999999.99959
6000000.00353
6000000.00031
6000000.00314
5999999.9986
5999999.9992
5999999.99954
5999999.99756
5999999.99392
6000000.00286
6000000.00148
5999999.99842
5999999.99956
5999999.99859
6000000.00017
5999999.99801
6000000.00125
5999999.9986
6000000.0006
5999999.99937
5999999.99994
6000000.00036
5999999.9981
6000000.00093
6000000.00028
5999999.99985
5999999.99989
5999999.99979
6000000.0002
6000000.0004
5999999.99972
5999999.99999
5999999.99982
6000000.00002
5999999.99981
5999999.99992
5999999.9997
5999999.99934
5999999.99996
6000000
5999999.99981
5999999.99998
6000000.0001
5999999.99991
5999999.99855
6000000.00259
5999999.99824
5999999.99928
5999999.999
5999999.99928
6000000.00017
5999999.99991
6000000.00001
5999999.99967
6000000.00165
6000000.00061
6000000.0001
6000000.00026
5999999.9993
5999999.99752
6000000.00273
6000000.00316
5999999.99832
5999999.99314
5999999.99312
6000000.00129
6000000.00663
6000000.00273
6000000.00393
5999999.99663
6000000.00461
5999999.99328
6000000.0011
5999999.99604
6000000.00039
5999999.99995
6000000.00339
5999999.99887
6000000.00202
5999999.99766
6000000.00183
5999999.99963
6000000.00002
6000000.00026
6000000.00038
6000000.00005
5999999.99952
6000000.00324
5999999.99959
6000000
6000000.00002
5999999.99992
5999999.99989
6000000.00003
6000000.00067
5999999.9988
5999999.99877
5999999.99881
5999999.99931
5999999.9999
5999999.99855
5999999.99653
6000000.00187
6000000.00078
6000000.00089
6000000.00236
5999999.99738
5999999.9973
6000000.0076
6000000.00344
6000000.0015
6000000.00298
5999999.99709
5999999.99871
6000000.00111
5999999.99906
6000000.00093
6000000.00022
6000000.00059
6000000.00062
6000000.00261
5999999.99946
5999999.99758
6000000.0006
5999999.99969
5999999.99967
6000000.00469
5999999.99907
5999999.99777
6000000.00309
6000000.00169
6000000.00046
6000000.00105
5999999.9963
5999999.99749
6000000.00484
6000000.00571
6000000.0028
5999999.99652
5999999.99757
6000000.0033
5999999.99993
5999999.99785
5999999.99662
6000000.00442
6000000.00333
5999999.99971
6000000.00204
5999999.99769
6000000.00146
5999999.99949
6000000.00064
6000000.00081
6000000.00049
6000000.00121
5999999.99942
5999999.99906
6000000.00142
6000000.00113
5999999.99391
5999999.99428
6000000.00354
6000000.00069
5999999.99923
5999999.99838
6000000.00323
5999999.99705
6000000.00084
6000000.00144
6000000.00305
5999999.99327
6000000.00287
6000000.00166
6000000.005
5999999.99551
5999999.99776
6000000.00156
6000000.00047
5999999.99472
5999999.99765
6000000.0052
6000000.00599
5999999.99949
6000000.00179
6000000.00129
6000000.0043
5999999.99721
6000000.00151
6000000.00181
5999999.99521
6000000.00325
6000000.0035
6000000.00561
6000000.00871
5999999.9953
5999999.99798
6000000.00388
6000000.00673
5999999.99443
5999999.99486
6000000.00266
5999999.99798
6000000.00001
6000000.00068
5999999.99594
6000000.0018
5999999.99685
6000000.00053
5999999.99581
5999999.99411
6000000.00408
6000000.00331
5999999.99835
6000000.00321
6000000.00127
6000000.00002
5999999.99982
5999999.99841
5999999.99692
6000000.00389
6000000.0076
5999999.99647
5999999.99853
5999999.99227
6000000.00489
6000000.00619
5999999.99556
5999999.99731
5999999.99579
5999999.9972
5999999.9964
6000000.00112
5999999.99906
6000000.00205
5999999.9989
5999999.99981
6000000.00351
5999999.9941
5999999.99461
5999999.99615
6000000.0072
6000000.00028
5999999.99842
6000000.001
6000000.00002
6000000.00277
5999999.99905
6000000.00159
6000000.00605
5999999.99623
5999999.99409
5999999.99231
6000000.00308
6000000.00281
5999999.99207
5999999.99639
5999999.99681
6000000.00138
5999999.99863
5999999.99286
6000000.004
6000000.00479
5999999.99989
6000000.00091
5999999.99995
6000000.00069
6000000.00092
6000000.00056
6000000.00006
5999999.99999
5999999.99991
5999999.99988
6000000.00015
6000000.00039
5999999.99821
6000000.00223
6000000.00684
5999999.99994
6000000.00101
6000000.00302
5999999.99924
6000000.00367
6000000.00127
5999999.99992
5999999.9999
5999999.99988
6000000.00152
5999999.9973
5999999.99706
6000000.00111
5999999.99593
6000000.00113
5999999.99857
5999999.99943
5999999.99913
5999999.99983
5999999.99977
6000000.00005
6000000.00046
5999999.99784
6000000.00354
5999999.99854
5999999.99895
5999999.99992
5999999.99784
6000000.00112
6000000.00122
6000000.00013
6000000.00046
5999999.99885
6000000.00394
5999999.99983
6000000
6000000.00054
5999999.99961
6000000.00044
5999999.99752
6000000.00615
6000000.00363
5999999.99457
5999999.99836
6000000.00227
5999999.99805
6000000.00363
5999999.9988
5999999.99985
6000000.00007
5999999.99942
6000000.00031
5999999.99909
6000000.00075
5999999.99688
6000000.00197
6000000.00109
6000000.00108
5999999.99962
6000000.00011
5999999.99679
6000000.00702
6000000.00367
5999999.99378
6000000.00149
6000000.00312
6000000.00469
5999999.99582
5999999.99529
6000000.00438
5999999.99854
5999999.99936
6000000.0003
5999999.99998
5999999.99992
5999999.99996
6000000.00002
5999999.99989
5999999.99993
5999999.99988
6000000.00027
5999999.99828
6000000.00278
5999999.99716
5999999.99963
6000000.00131
5999999.99277
6000000.00521
6000000.00507
6000000.0017
5999999.99931
6000000.00314
6000000.00553
5999999.9964
5999999.99511
6000000.00293
5999999.99908
6000000.00332
6000000.0054
6000000.00055
6000000.00597
6000000.0001
5999999.99978
6000000.00085
6000000.0007
5999999.99984
6000000.00008
6000000.00364
5999999.99779
6000000.00066
6000000.00179
6000000.00323
6000000.00301
5999999.99445
6000000.00211
6000000.00071
6000000.001
5999999.99903
6000000.00501
6000000.00367
5999999.9974
6000000.00307
6000000.00031
5999999.9992
6000000.00065
5999999.99943
6000000.00234
5999999.99329
6000000.00262
6000000.0015
6000000.00021
5999999.99869
6000000.00017
6000000.00135
5999999.99971
6000000.00001
6000000.00002
6000000
6000000.00002
5999999.99989
6000000.00001
5999999.99981
5999999.99991
6000000.00034
5999999.9989
6000000.00184
5999999.99955
5999999.99979
5999999.99967
6000000.00033
5999999.99818
6000000.00086
6000000.00051
6000000.00072
5999999.99736
5999999.99791
6000000.00111
6000000.002
5999999.99835
6000000.00114
5999999.99811
6000000.00305
6000000.00276
6000000.0005
6000000.00033
5999999.99963
5999999.99896
6000000.00227
5999999.99525
6000000.00662
5999999.9968
5999999.99444
6000000.00368
6000000.00427
6000000.00528
5999999.99993
6000000.00025
5999999.99435
5999999.99538
5999999.99515
6000000.00194
5999999.99774
6000000.00516
5999999.99913
5999999.99729
6000000.00072
5999999.99716
6000000.00214
5999999.99806
6000000.00528
5999999.99259
5999999.99511
6000000.00412
5999999.99469
5999999.99671
5999999.99811
6000000.00203
6000000.00182
6000000.00128
6000000.00002
6000000.00105
6000000.00079
6000000.00265
5999999.99637
6000000.00228
6000000.00138
5999999.99972
5999999.99816
5999999.99998
6000000.00008
5999999.99835
5999999.99881
6000000.00151
5999999.99989
6000000.00166
6000000.00228
5999999.99714
5999999.99901
6000000.00483
5999999.99916
5999999.9997
5999999.99985
6000000.00001
6000000.00001
6000000.00014
6000000.00004
5999999.99981
6000000.00058
6000000.0001
5999999.99645
6000000.00103
5999999.99947
5999999.99984
5999999.99997
6000000.00045
5999999.99792
6000000.00373
6000000.00202
5999999.99514
6000000.00668
5999999.99387
5999999.993
6000000.00269
6000000.00538
5999999.99142
5999999.99747
5999999.99702
5999999.99926
6000000.00139
5999999.99789
6000000.00132
5999999.99596
5999999.99691
6000000.00067
5999999.99726
6000000.00363
5999999.99802
6000000.00163
6000000.00303
5999999.9954
5999999.99499
5999999.99396
5999999.99931
6000000.00488
6000000.00226
5999999.99606
5999999.99304
6000000.00413
6000000.00293
5999999.9933
5999999.99913
6000000.00585
6000000.00454
5999999.99784
5999999.99766
6000000.00472
5999999.99969
6000000.00002
6000000.00001
5999999.99982
6000000.00099
6000000.00155
5999999.99844
5999999.99812
5999999.9985
6000000.00055
6000000.00183
5999999.99945
6000000.00074
5999999.99825
5999999.9977
6000000.00156
6000000.00061
6000000.00033
6000000.00002
6000000.00003
5999999.99991
5999999.9999
6000000.00045
5999999.99899
5999999.99876
6000000.00016
6000000.0025
5999999.9979
5999999.99988
6000000.00011
5999999.99428
6000000.00041
6000000.00065
6000000.00476
6000000.00178
5999999.9993
6000000.00152
6000000.00046
5999999.99783
6000000.00313
5999999.99632
6000000.00322
6000000.00065
6000000.00503
5999999.99908
5999999.99972
6000000.00595
6000000.00236
6000000.00388
6000000.0022
5999999.99629
5999999.99868
6000000.00315
5999999.99947
5999999.99751
5999999.997
6000000.00273
5999999.99769
5999999.99884
5999999.99665
6000000.00029
6000000.00231
5999999.99827
5999999.99837
5999999.99878
5999999.99979
5999999.99987
6000000.0016
6000000.00062
6000000.00078
5999999.99895
6000000.00179
6000000.0016
5999999.99837
5999999.99981
6000000.00015
6000000.00002
6000000.00011
5999999.99994
6000000.00116
6000000.00118
5999999.99795
6000000.00299
6000000.00205
5999999.99618
6000000.00528
5999999.99479
5999999.99828
6000000.00265
6000000.00656
6000000.00301
6000000.00264
6000000.00176
5999999.99238
5999999.99715
5999999.99865
5999999.99902
6000000.00405
6000000.00479
5999999.99334
5999999.99695
5999999.99474
6000000.00594
6000000.00269
6000000.00309
5999999.99863
6000000.00101
6000000.00075
6000000.00202
5999999.99954
5999999.99908
5999999.99979
6000000.00003
5999999.99989
6000000.0009
5999999.9992
6000000.00122
5999999.99982
6000000.00008
5999999.99863
5999999.99585
6000000.00358
6000000.00121
5999999.99597
5999999.99461
6000000.00577
5999999.99806
5999999.99562
6000000.0017
6000000.00636
5999999.99519
6000000.00433
5999999.99876
5999999.99765
6000000.00606
5999999.99921
6000000.00015
5999999.99998
6000000
6000000.00007
6000000.00001
6000000.00007
6000000.00002
6000000.00007
6000000.0002
6000000.00025
6000000.00004
6000000.00017
5999999.99926
6000000.00118
6000000.00148
5999999.99468
6000000.00328
6000000.00508
5999999.99863
6000000.00182
6000000.00258
6000000.00231
5999999.99905
6000000.00028
5999999.99383
6000000.00129
5999999.9995
6000000.0013
6000000.00312
5999999.99904
5999999.99878
5999999.99939
5999999.99881
6000000.00028
5999999.99843
6000000.00124
6000000.00182
5999999.99827
5999999.99944
5999999.99866
6000000.00145
5999999.99967
5999999.99999
5999999.99973
5999999.99928
6000000.00089
5999999.99906
5999999.99802
6000000.00379
5999999.9962
6000000.00153
5999999.99885
5999999.99924
5999999.99988
5999999.99919
6000000.00198
5999999.99542
6000000.00202
5999999.99942
5999999.99917
6000000.00004
5999999.99944
5999999.99987
5999999.99953
6000000.00118
5999999.99839
5999999.99948
5999999.99995
5999999.99993
5999999.99992
5999999.99998
6000000.00009
5999999.99993
5999999.99968
6000000
5999999.99989
5999999.9999
6000000.00002
5999999.99935
6000000.002
5999999.99948
6000000.00015
6000000.00014
6000000.00146
5999999.99802
6000000.00155
5999999.9961
6000000.00267
6000000.00172
6000000.00201
6000000.00237
5999999.99694
5999999.99915
5999999.99798
6000000.00262
5999999.99894
5999999.99805
6000000.00182
5999999.99818
5999999.9991
5999999.9996
6000000.00003
6000000.00441
6000000.00184
6000000.00334
5999999.99913
6000000.00033
6000000.00253
5999999.99494
6000000.00075
5999999.99646
6000000.0055
6000000.002
5999999.99403
5999999.99543
5999999.9951
6000000.00598
6000000.00189
6000000.0059
5999999.997
5999999.998
6000000.00077
5999999.99497
5999999.99401
5999999.99692
5999999.9982
6000000.00237
5999999.9947
5999999.99673
5999999.99344
6000000.00059
5999999.99507
5999999.99807
5999999.99659
5999999.99649
5999999.99495
5999999.99461
6000000.00418
6000000.00143
6000000.0014
5999999.99377
6000000.00248
5999999.99958
6000000.00025
6000000.00128
5999999.99851
6000000.00034
5999999.99581
6000000.00327
5999999.99482
5999999.99489
6000000.00258
5999999.99461
5999999.99518
6000000.00599
5999999.99534
5999999.99384
6000000.00107
6000000.00195
5999999.9996
6000000.00144
6000000.0006
6000000.00042
5999999.99997
6000000.00069
5999999.99952
6000000.00062
5999999.99895
6000000.00033
6000000.00024
5999999.99992
5999999.99993
6000000.00017
6000000.00173
5999999.99989
5999999.99967
6000000.00131
6000000.00013
5999999.99942
5999999.99963
5999999.99947
5999999.99907
6000000.00028
6000000.00006
6000000.00036
5999999.99951
5999999.99904
6000000.00067
6000000.00221
5999999.99813
6000000.0009
6000000.00308
6000000.00272
5999999.99608
5999999.99739
6000000.00344
5999999.99931
6000000.00153
6000000.00053
5999999.99653
6000000.00303
6000000.00257
6000000.00003
5999999.99869
6000000.00005
5999999.99831
6000000.00371
6000000.00028
6000000.00119
5999999.99873
5999999.99745
6000000.00655
6000000.00599
5999999.99319
5999999.99743
6000000.00182
6000000.00141
5999999.99884
6000000.00126
5999999.99992
6000000.0034
5999999.99917
6000000.00257
5999999.99967
5999999.99952
5999999.99991
6000000.00004
5999999.99997
5999999.99998
5999999.99998
6000000.00001
6000000.00004
6000000.00014
6000000
6000000
6000000.00001
5999999.99999
6000000.00019
5999999.99998
6000000.00001
5999999.99993
5999999.99996
6000000.00021
6000000.00028
5999999.99995
6000000.00014
5999999.99999
6000000
5999999.99964
6000000.0003
5999999.99993
6000000.00033
5999999.99938
5999999.99925
5999999.99924
6000000.00062
5999999.99964
6000000.00294
5999999.99936
5999999.99968
5999999.9996
6000000.00019
6000000.00004
6000000.00013
5999999.99992
6000000.00001
6000000
6000000.00017
5999999.99899
6000000.00062
5999999.99887
6000000.00368
5999999.99939
5999999.99883
6000000.00149
5999999.99884
6000000.00392
6000000.00372
5999999.9986
5999999.9998
6000000.00626
6000000.00084
6000000.0007
6000000.00098
5999999.99968
6000000.00006
6000000.00007
6000000.00026
6000000.00008
6000000.00007
6000000.00033
5999999.99896
6000000.0013
6000000.0008
6000000.00052
6000000.00035
5999999.99925
6000000
5999999.99992
6000000.00002
6000000.00006
6000000.00102
5999999.99892
5999999.99712
6000000.00238
5999999.99788
6000000.00225
5999999.99624
5999999.99906
5999999.99968
5999999.99684
5999999.99978
6000000.00427
5999999.99481
5999999.99371
6000000.00217
5999999.99312
5999999.99383
6000000.00101
5999999.9972
5999999.99849
5999999.99566
6000000.00241
6000000.00239
5999999.9966
6000000.0042
5999999.99795
5999999.99767
6000000.00246
6000000.00274
5999999.99953
5999999.99929
5999999.99962
6000000.0001
5999999.99981
5999999.99924
6000000.0019
5999999.99945
6000000.0021
5999999.99856
5999999.9981
6000000.00014
5999999.99886
5999999.99939
5999999.99819
5999999.99853
5999999.99863
5999999.9998
5999999.99855
6000000.00366
5999999.99946
5999999.99767
5999999.99981
5999999.99999
5999999.99996
5999999.99983
5999999.99983
6000000.00022
5999999.99998
5999999.99996
6000000.00014
6000000.00011
5999999.99998
6000000.00007
5999999.99998
6000000.00019
6000000.00077
6000000.00049
5999999.9976
5999999.99785
6000000.00128
6000000.00024
5999999.99998
5999999.99998
6000000.00001
5999999.99989
5999999.99965
6000000.00012
6000000
5999999.99904
6000000.00071
5999999.99973
6000000.0015
5999999.99892
6000000.00025
6000000.00189
5999999.99945
6000000.00035
5999999.99932
6000000.00001
5999999.99991
6000000
5999999.99983
5999999.99991
6000000.00003
5999999.99929
5999999.99841
6000000.00016
5999999.99912
6000000.00237
5999999.99786
6000000.0012
6000000.00064
5999999.99986
6000000.00041
6000000.00139
5999999.99903
5999999.99613
6000000.00385
6000000.00018
6000000.00013
6000000.00077
6000000.00197
6000000.00035
5999999.99717
6000000.00441
6000000.003
5999999.99971
5999999.99795
6000000.00216
6000000.00178
5999999.99887
6000000.00527
6000000.0003
6000000.00247
5999999.99695
5999999.99751
6000000.00135
5999999.999
5999999.99969
5999999.99682
6000000.004
6000000.00109
5999999.99865
6000000.0003
5999999.99836
6000000.00356
5999999.99832
6000000.00175
5999999.99437
6000000.00654
6000000.005
5999999.99828
6000000.00114
5999999.9926
5999999.9923
6000000.00326
6000000.00242
6000000.00432
5999999.9978
5999999.99515
6000000.00423
5999999.99601
5999999.99885
5999999.99886
5999999.99798
6000000.00121
5999999.99898
6000000.00026
5999999.99984
5999999.99947
6000000.00041
5999999.99765
6000000.00224
5999999.99955
5999999.99873
6000000.00275
5999999.99791
6000000.00138
5999999.99603
6000000.0004
5999999.99999
5999999.99964
5999999.99844
5999999.99846
6000000.00155
6000000.00186
5999999.99915
6000000.00676
6000000.00255
5999999.99379
6000000.00311
5999999.99848
6000000.00688
6000000.0055
5999999.99742
5999999.99577
5999999.99878
6000000.00647
6000000.00196
5999999.99703
5999999.99569
5999999.99532
6000000.00291
5999999.99691
5999999.99466
5999999.99803
5999999.99483
6000000.00404
5999999.9973
5999999.99635
5999999.9986
6000000.00174
5999999.99735
5999999.99729
6000000.0013
6000000.00129
5999999.99617
5999999.99764
5999999.99547
5999999.99552
5999999.99732
5999999.99869
6000000.00093
5999999.9927
5999999.99395
6000000.00191
6000000.0005
5999999.99518
5999999.99556
5999999.99502
5999999.99366
6000000.00433
5999999.99681
5999999.99239
6000000.00022
5999999.99591
6000000.00248
6000000.00496
5999999.99262
5999999.99456
5999999.99764
6000000.00553
6000000.00075
5999999.99756
6000000.00309
6000000.00596
5999999.99979
6000000.00601
5999999.99626
5999999.99362
6000000.00362
6000000.00067
5999999.99951
5999999.99463
5999999.9964
6000000.00266
5999999.99615
5999999.99842
6000000.00213
5999999.99891
6000000.00299
6000000.00712
6000000.00317
5999999.99844
5999999.99525
5999999.99728
6000000.00571
6000000.00223
5999999.99565
5999999.99727
6000000.00083
6000000.00622
6000000.00089
5999999.99893
5999999.9997
6000000.00148
5999999.99859
5999999.99909
6000000.00338
6000000.00173
5999999.99695
6000000.00261
5999999.99668
5999999.9996
5999999.99736
6000000.00044
6000000.00228
5999999.99421
6000000
6000000.00104
5999999.99416
5999999.99754
6000000.00293
5999999.9981
5999999.9981
6000000.00248
5999999.99842
5999999.9966
5999999.99561
5999999.99792
5999999.99587
5999999.9993
5999999.99793
6000000.00675
5999999.99769
6000000.00029
6000000.0053
5999999.99862
6000000.00138
5999999.99998
6000000.00841
5999999.99719
6000000.00087
6000000.00633
6000000.0068
5999999.99898
5999999.99812
6000000.00994
6000000.00778
6000000.00609
5999999.99804
5999999.99811
6000000.00797
6000000.0083
6000000.00185
6000000.00672
6000000.0023
5999999.99513
6000000.0068
6000000.00782
6000000.00014
5999999.9973
6000000.00745
6000000.00255
5999999.9941
6000000.00243
6000000.00218
6000000.00908
6000000.00763
5999999.9977
6000000.00236
6000000.0071
5999999.99614
5999999.99956
6000000.00645
6000000.00915
6000000.0006
6000000.00634
6000000.00553
6000000.00489
5999999.99802
6000000.0013
6000000.00839
6000000.00955
6000000.01007
6000000.003
6000000.00299
6000000.00642
6000000.01024
5999999.99972
6000000.00295
6000000.00572
5999999.99663
6000000.0056
6000000.0052
6000000.00989
6000000.0042
6000000.00737
6000000.00569
5999999.99363
6000000.00685
6000000.00205
5999999.99863
6000000.00874
5999999.99874
5999999.99977
5999999.99858
6000000.00037
5999999.99829
5999999.99956
5999999.99897
5999999.99948
5999999.99928
5999999.99947
5999999.99719
5999999.9977
5999999.99954
5999999.99812
6000000.00026
5999999.9983
5999999.99869
5999999.99828
6000000.00012
5999999.99791
5999999.99746
5999999.99862
5999999.99965
5999999.99854
5999999.99862
5999999.9996
5999999.9975
5999999.99842
5999999.99927
5999999.99587
5999999.99851
6000000.0002
5999999.99915
5999999.99675
5999999.99938
5999999.9974
5999999.99996
5999999.99887
5999999.9987
5999999.99676
5999999.99896
6000000.00006
5999999.99778
5999999.99943
5999999.99961
5999999.99868
5999999.9988
5999999.9991
5999999.99665
5999999.99689
5999999.99941
5999999.99995
6000000.00022
6000000.00032
5999999.99828
5999999.99896
5999999.9979
5999999.99831
5999999.99825
5999999.99873
5999999.99959
6000000.00035
6000000.00207
5999999.99831
5999999.99939
5999999.99944
5999999.9999
5999999.99969
6000000.00061
5999999.99986
5999999.99954
6000000.00023
5999999.99975
5999999.99973
5999999.99977
5999999.9998
6000000.00046
6000000.00008
5999999.99978
5999999.9996
6000000.00025
6000000.00037
5999999.99982
6000000.00037
5999999.99988
6000000.00035
5999999.99992
5999999.99989
6000000.00026
6000000
6000000.00038
5999999.99985
5999999.99996
5999999.99957
6000000.0003
6000000.00048
6000000.00022
6000000.00051
5999999.99996
6000000.00054
6000000.00052
5999999.99974
6000000.00034
5999999.99996
6000000.00029
6000000.00009
5999999.99966
6000000.00081
6000000.00018
6000000.00049
6000000.00029
5999999.9995
5999999.99984
5999999.99974
6000000.00013
6000000.00002
6000000.00033
6000000.00045
5999999.99971
6000000.00003
6000000.00019
6000000.00011
6000000.00022
6000000.00014
6000000.00019
6000000.00042
5999999.99975
6000000.00058
6000000.00073
6000000.00105
6000000.00097
6000000.00105
6000000.00062
6000000.00102
6000000.00087
6000000.0012
6000000.00085
6000000.00081
6000000.00089
6000000.00088
6000000.00083
6000000.00081
6000000.00091
6000000.00098
6000000.00082
6000000.00099
6000000.00111
6000000.0009
6000000.00111
6000000.00124
6000000.00075
6000000.001
6000000.00098
6000000.0009
6000000.00076
6000000.00059
6000000.00102
6000000.00088
6000000.00088
6000000.00085
6000000.00087
6000000.00116
6000000.00073
6000000.00095
6000000.00074
6000000.00084
6000000.00066
6000000.00086
6000000.00102
6000000.0011
6000000.00099
6000000.00093
6000000.00093
6000000.00093
6000000.00078
6000000.00104
6000000.00121
6000000.00126
6000000.00075
6000000.00089
6000000.00085
6000000.00095
6000000.00099
6000000.00095
6000000.00099
6000000.00106
6000000.00102
6000000.00102
6000000.00092
6000000.00126
6000000.00136
6000000.00086
5999999.99901
5999999.9987
5999999.99883
5999999.99903
5999999.99872
5999999.99915
5999999.99881
5999999.99877
5999999.99871
5999999.9987
5999999.99887
5999999.99899
5999999.99901
5999999.99882
5999999.99862
5999999.99873
5999999.99878
5999999.99899
5999999.99887
5999999.99901
5999999.9988
5999999.99877
5999999.99912
5999999.99898
5999999.99873
5999999.99888
5999999.99935
5999999.99873
5999999.99894
5999999.99908
5999999.99902
5999999.9994
5999999.99906
5999999.99909
5999999.99888
5999999.99885
5999999.99909
5999999.99867
5999999.99858
5999999.9987
5999999.99904
5999999.99908
5999999.99889
5999999.999
5999999.99897
5999999.99898
5999999.99923
5999999.99902
5999999.9988
5999999.99897
5999999.99886
5999999.99867
5999999.9988
5999999.99863
5999999.99892
5999999.99888
5999999.99894
5999999.999
5999999.99887
5999999.99886
5999999.99879
5999999.99904
5999999.99882
5999999.99886
5999999.99949
5999999.99929
5999999.9995
5999999.99976
5999999.9997
5999999.9996
5999999.99965