/*--------------------------------*- C++ -*----------------------------------*\
  =========                 |
  \\      /  F ield         | OpenFOAM: The Open Source CFD Toolbox
   \\    /   O peration     | Website:  https://openfoam.org
    \\  /    A nd           | Version:  6
     \\/     M anipulation  |
\*---------------------------------------------------------------------------*/
FoamFile
{
    version     2.0;
    format      ascii;
    class       volVectorField;
    location    "4.96e-05";
    object      U;
}
// * * * * * * * * * * * * * * * * * * * * * * * * * * * * * * * * * * * * * //

dimensions      [0 1 -1 0 0 0 0];

internalField   nonuniform List<vector> 
8192
(
(-88.322 0 -2.91362137451e-10)
(-88.3219999996 0 -9.64055564163e-11)
(-88.3220000002 0 -7.29554574097e-11)
(-88.3220000004 0 -3.13943063341e-10)
(-88.3219999994 0 -6.68472653841e-11)
(-88.3219999996 0 -5.94946138105e-12)
(-88.3220000003 0 -3.23055509635e-12)
(-88.3219999999 0 1.41396787988e-10)
(-88.322 0 -2.89407726325e-10)
(-88.322 0 -5.9918243364e-10)
(-88.3219999999 0 -7.62002116103e-10)
(-88.322 0 3.85337775819e-10)
(-88.3220000002 0 6.82747542272e-10)
(-88.3220000001 0 -8.03440228707e-10)
(-88.3219999998 0 -6.41353796497e-10)
(-88.3219999999 0 3.87380424439e-10)
(-88.3219999998 0 3.52142073634e-10)
(-88.3219999999 0 7.31129276141e-10)
(-88.3220000003 0 -4.34121864708e-10)
(-88.3219999999 0 -6.15735420466e-10)
(-88.3219999996 0 2.63353979035e-10)
(-88.3220000004 0 4.01223980446e-10)
(-88.3220000004 0 -6.66300421815e-10)
(-88.3219999998 0 -5.9967661108e-10)
(-88.322 0 1.93438440156e-10)
(-88.3219999998 0 2.05556435087e-10)
(-88.3219999999 0 2.59759472097e-10)
(-88.3219999999 0 2.1587449296e-10)
(-88.3220000002 0 3.42116950342e-10)
(-88.3220000002 0 -1.80018697912e-10)
(-88.322 0 2.36366874264e-10)
(-88.3219999996 0 -7.85326179004e-11)
(-88.3219999988 0 1.39520334475e-10)
(-88.322000002 0 5.80281297586e-10)
(-88.3220000029 0 -9.22675299364e-10)
(-88.3219999986 0 -6.63391647596e-10)
(-88.3219999995 0 -7.96188433417e-12)
(-88.3219999996 0 -5.9142123456e-10)
(-88.3219999985 0 1.6782257242e-10)
(-88.3220000007 0 1.96025280908e-10)
(-88.3220000001 0 -7.81326448934e-11)
(-88.3219999997 0 7.91134734909e-11)
(-88.3220000002 0 -1.64632736465e-11)
(-88.322 0 -1.58288782829e-11)
(-88.322 0 -6.30779512951e-11)
(-88.322 0 -4.2794212388e-11)
(-88.322 0 -2.2595378411e-11)
(-88.3219999999 0 -2.03006745017e-11)
(-88.3220000001 0 3.52336744711e-11)
(-88.3219999998 0 -1.09864626889e-10)
(-88.3219999999 0 1.527818046e-10)
(-88.3220000007 0 -8.06449224146e-11)
(-88.3219999994 0 -2.29827214694e-10)
(-88.3219999992 0 3.8276293265e-10)
(-88.3220000013 0 2.11076098263e-10)
(-88.3220000007 0 -2.01090056011e-10)
(-88.322 0 -2.57422562346e-11)
(-88.3219999998 0 -1.88155348279e-10)
(-88.3220000002 0 -4.92951494188e-11)
(-88.3219999991 0 -3.33591271817e-10)
(-88.3219999983 0 3.63875457132e-10)
(-88.3219999998 0 4.12843588691e-10)
(-88.322000001 0 3.7145781615e-10)
(-88.3220000014 0 -5.79938186859e-11)
(-88.3220000001 0 -3.72881262968e-10)
(-88.3219999998 0 -9.75136006077e-11)
(-88.3220000002 0 1.54581047049e-10)
(-88.3219999996 0 2.25269079255e-11)
(-88.322 0 2.97665959476e-10)
(-88.3220000002 0 -1.24903347767e-10)
(-88.3219999994 0 6.34722140528e-11)
(-88.3220000006 0 2.94523741238e-12)
(-88.3220000014 0 -1.05216663752e-11)
(-88.3220000008 0 -6.96045164154e-11)
(-88.3219999981 0 7.726795191e-11)
(-88.3219999971 0 -2.70510577742e-10)
(-88.3220000021 0 -2.72465233703e-11)
(-88.3220000026 0 -1.99688893269e-10)
(-88.3219999978 0 -3.39829381934e-10)
(-88.3219999982 0 3.40583678515e-10)
(-88.3219999995 0 2.60528139616e-10)
(-88.3220000018 0 1.51994896201e-10)
(-88.3220000025 0 -3.64975175321e-10)
(-88.3219999988 0 -2.06543060962e-10)
(-88.3219999983 0 -7.08138083332e-11)
(-88.3220000015 0 -3.40182460531e-11)
(-88.3220000017 0 2.23873301472e-10)
(-88.3219999986 0 -7.12572304595e-11)
(-88.3219999984 0 4.7294689337e-10)
(-88.322 0 -1.83324187351e-10)
(-88.3220000001 0 3.13752005324e-10)
(-88.3219999999 0 3.12087757491e-10)
(-88.3220000006 0 -9.55689243614e-11)
(-88.322 0 -9.04354221745e-12)
(-88.3219999998 0 9.38244348525e-11)
(-88.3220000005 0 3.28359557315e-11)
(-88.3219999998 0 -2.61315752692e-10)
(-88.3220000003 0 -4.89285755171e-10)
(-88.322 0 6.13102772573e-10)
(-88.3219999995 0 6.87733971143e-10)
(-88.3220000002 0 1.17658103284e-11)
(-88.322 0 3.16418850445e-10)
(-88.322 0 -1.64726406439e-10)
(-88.322 0 -2.5268544015e-10)
(-88.322 0 1.98664072639e-10)
(-88.3220000001 0 -1.08351259261e-10)
(-88.322 0 9.13556257402e-11)
(-88.322 0 -2.29391287704e-10)
(-88.322 0 -4.07991367514e-10)
(-88.322 0 -3.56881748911e-10)
(-88.322 0 -3.46205615242e-10)
(-88.322 0 -4.3895084028e-10)
(-88.322 0 -3.93847866567e-10)
(-88.322 0 -7.01174707969e-11)
(-88.322 0 3.18577930995e-10)
(-88.3220000001 0 -1.0398113683e-10)
(-88.3219999997 0 6.63104448425e-11)
(-88.322 0 -1.19702090782e-10)
(-88.3220000001 0 -3.14023384904e-10)
(-88.3219999999 0 4.21800168121e-10)
(-88.322 0 -1.99535506859e-10)
(-88.3220000002 0 -1.46083117422e-10)
(-88.322 0 -3.80611357306e-10)
(-88.3219999999 0 9.83043800467e-10)
(-88.322 0 3.67863659999e-10)
(-88.3220000001 0 -8.3547790316e-10)
(-88.3220000002 0 -1.15651451421e-09)
(-88.322 0 -4.63746548754e-10)
(-88.3219999993 0 9.1125116016e-11)
(-88.3219999987 0 1.2846950708e-10)
(-88.322 0 -3.86667266196e-11)
(-88.3220000001 0 2.23530604769e-10)
(-88.3219999999 0 -1.88347389494e-10)
(-88.3220000001 0 1.68775218154e-10)
(-88.322 0 -5.39219632934e-11)
(-88.322 0 -1.31516806423e-10)
(-88.3220000002 0 2.55946639447e-10)
(-88.3219999998 0 5.55747308116e-10)
(-88.3220000003 0 7.22943502814e-10)
(-88.3220000002 0 -2.55456864711e-10)
(-88.322 0 -5.72070330717e-10)
(-88.3220000006 0 5.55548534586e-10)
(-88.3219999987 0 5.75303565169e-10)
(-88.3219999986 0 -4.12616388596e-10)
(-88.3220000002 0 -3.5715230977e-10)
(-88.3220000011 0 -6.48391034572e-10)
(-88.322000001 0 4.69773119432e-10)
(-88.3219999994 0 5.67585671896e-10)
(-88.3219999992 0 -2.19652681149e-10)
(-88.3219999998 0 -2.0844313647e-10)
(-88.3220000004 0 6.27049105351e-10)
(-88.3219999993 0 5.96188308982e-10)
(-88.3220000002 0 -1.0170597984e-10)
(-88.3220000001 0 -1.90751203332e-10)
(-88.3219999989 0 -1.03792086612e-10)
(-88.3220000008 0 1.22990698636e-10)
(-88.3220000008 0 -1.16754281189e-10)
(-88.3219999998 0 7.61831244482e-11)
(-88.3219999999 0 8.30306809269e-11)
(-88.3220000004 0 2.79638185e-12)
(-88.322 0 -5.08306467794e-10)
(-88.322 0 4.83699229969e-10)
(-88.3220000002 0 6.8493331033e-10)
(-88.322 0 -4.70346223758e-10)
(-88.3220000003 0 -7.61281782647e-10)
(-88.322 0 8.88187069873e-10)
(-88.3219999997 0 4.52372335891e-10)
(-88.3219999999 0 -3.67872329065e-10)
(-88.3219999999 0 -4.82109004697e-10)
(-88.322 0 2.24898026628e-10)
(-88.3220000005 0 -3.04966904248e-10)
(-88.3220000011 0 -7.38369721213e-11)
(-88.3220000003 0 -3.86997786931e-10)
(-88.3219999998 0 6.44200236793e-11)
(-88.3220000001 0 -6.649385828e-10)
(-88.3219999999 0 -6.09771955401e-10)
(-88.3219999993 0 5.70460746341e-10)
(-88.3219999985 0 2.79114637596e-11)
(-88.322 0 -4.6125695344e-10)
(-88.3220000011 0 1.93539622204e-10)
(-88.3219999994 0 -4.76659804751e-10)
(-88.3219999999 0 4.47478881249e-10)
(-88.322 0 1.01399937826e-10)
(-88.3220000004 0 -3.69142403813e-10)
(-88.3220000012 0 -4.18334808736e-10)
(-88.3220000003 0 -4.44970697426e-10)
(-88.321999998 0 -1.72555873043e-10)
(-88.3219999977 0 -2.23596467788e-10)
(-88.322000002 0 -1.7221998814e-10)
(-88.3220000029 0 9.1127138612e-11)
(-88.3220000002 0 6.6580129574e-11)
(-88.3219999999 0 9.19404334392e-11)
(-88.322 0 6.84779036335e-10)
(-88.3220000001 0 2.06177445155e-10)
(-88.322 0 -8.63450841724e-11)
(-88.322 0 1.80219602124e-10)
(-88.322 0 -2.22731623228e-10)
(-88.322 0 4.88571381315e-11)
(-88.322 0 1.79617702187e-11)
(-88.322 0 4.07895778661e-11)
(-88.322 0 4.24213419404e-11)
(-88.322 0 1.05378524184e-10)
(-88.3219999998 0 -4.20179932755e-11)
(-88.3219999997 0 1.79349166911e-10)
(-88.3220000006 0 -2.16178656273e-11)
(-88.3220000002 0 4.61562388353e-10)
(-88.3219999997 0 3.79329552957e-10)
(-88.322 0 -3.34170941434e-10)
(-88.322 0 -2.489808765e-10)
(-88.322 0 -3.27883301962e-10)
(-88.322 0 5.60662978211e-10)
(-88.322 0 4.87040036272e-10)
(-88.322 0 -5.48185513843e-10)
(-88.3219999998 0 -5.02601254645e-10)
(-88.322 0 3.40222097305e-10)
(-88.322 0 5.58913826672e-10)
(-88.322 0 -2.34240159288e-10)
(-88.322 0 6.14181689945e-10)
(-88.3219999995 0 -1.96629967658e-10)
(-88.3219999999 0 6.63626076294e-11)
(-88.3220000007 0 -1.02507450476e-10)
(-88.3219999996 0 -3.09891580833e-10)
(-88.3219999999 0 1.21055253297e-10)
(-88.3220000016 0 -1.00216815985e-10)
(-88.3219999988 0 6.83815958575e-12)
(-88.3219999981 0 -1.02197886954e-10)
(-88.3220000019 0 4.91307585836e-11)
(-88.3220000023 0 1.0188371852e-10)
(-88.3219999976 0 -8.47046577957e-11)
(-88.3219999976 0 3.94859930651e-10)
(-88.3220000024 0 -3.83621281173e-11)
(-88.3220000018 0 4.57822867376e-11)
(-88.3219999988 0 -9.61592595527e-11)
(-88.3219999998 0 9.52267565476e-13)
(-88.3220000006 0 -1.11393961216e-10)
(-88.3220000002 0 2.31421926697e-10)
(-88.3219999997 0 4.39278606666e-10)
(-88.3220000006 0 3.55258389208e-10)
(-88.3220000013 0 3.77190905684e-10)
(-88.3219999975 0 2.98018366233e-10)
(-88.3219999989 0 5.62356326241e-10)
(-88.322000002 0 1.96025849901e-10)
(-88.3219999998 0 -3.88926510687e-10)
(-88.3220000002 0 1.09515962757e-10)
(-88.3219999992 0 -2.3735215506e-10)
(-88.3219999989 0 2.32638661906e-10)
(-88.3220000016 0 6.23065209877e-10)
(-88.3220000009 0 -5.78115821504e-10)
(-88.3220000001 0 -2.09355009992e-10)
(-88.3219999997 0 4.530836526e-10)
(-88.3219999996 0 3.73657513556e-11)
(-88.3219999998 0 -5.23153398318e-10)
(-88.3219999994 0 -1.16135703693e-09)
(-88.3219999997 0 8.74278765496e-10)
(-88.3220000001 0 1.06783571171e-09)
(-88.322 0 8.3326021711e-10)
(-88.3220000005 0 -3.27592064259e-10)
(-88.3220000001 0 -1.54365797207e-10)
(-88.322 0 2.9250408793e-10)
(-88.3220000004 0 -4.47844165946e-11)
(-88.322 0 -7.10292791112e-11)
(-88.3219999996 0 -6.10779870844e-12)
(-88.322 0 -8.24121672938e-12)
(-88.322 0 4.73415075184e-11)
(-88.322 0 1.49787241177e-11)
(-88.322 0 -1.1448494134e-11)
(-88.3220000001 0 8.32703032556e-11)
(-88.3220000002 0 -3.09376269374e-10)
(-88.3219999996 0 -3.22775395968e-10)
(-88.3219999998 0 5.88274358429e-11)
(-88.3220000003 0 -3.01165174337e-11)
(-88.322 0 4.02524772037e-11)
(-88.3220000002 0 1.87671148767e-10)
(-88.3219999994 0 1.76555899606e-10)
(-88.3219999994 0 -3.1981478842e-11)
(-88.3220000016 0 -6.78064335947e-12)
(-88.3220000012 0 3.92318310834e-11)
(-88.321999998 0 4.36134780814e-11)
(-88.3219999983 0 1.00156204598e-10)
(-88.3220000005 0 -1.28229032532e-10)
(-88.3220000001 0 1.540750987e-10)
(-88.322 0 8.00526062411e-12)
(-88.3219999999 0 2.8769177376e-10)
(-88.3220000006 0 2.91697922236e-10)
(-88.3220000015 0 4.03340574752e-10)
(-88.3219999993 0 -3.9964850052e-11)
(-88.3219999994 0 1.472568164e-10)
(-88.3220000005 0 4.31608646425e-10)
(-88.3220000001 0 -3.91865410888e-11)
(-88.322 0 -5.77058781413e-10)
(-88.3219999998 0 -8.01626658325e-10)
(-88.3220000002 0 2.53676718844e-10)
(-88.3219999997 0 9.55772763738e-10)
(-88.3219999999 0 -1.15683376482e-09)
(-88.3220000004 0 -2.93250967845e-10)
(-88.3219999999 0 1.33227497478e-10)
(-88.322 0 4.17783923815e-10)
(-88.322 0 -1.87002301083e-10)
(-88.322 0 2.53466666151e-10)
(-88.322 0 8.52856209475e-11)
(-88.322 0 3.50974953496e-10)
(-88.3219999999 0 -4.8217636044e-11)
(-88.3220000002 0 6.58649290925e-10)
(-88.3219999997 0 5.18299872607e-10)
(-88.3219999996 0 -4.90350627542e-10)
(-88.3220000004 0 -1.5436505555e-10)
(-88.3220000001 0 3.39562382011e-10)
(-88.3220000009 0 2.13768988692e-11)
(-88.3219999992 0 3.8119362338e-10)
(-88.3219999982 0 -4.78911641518e-10)
(-88.3220000016 0 -9.3834841289e-11)
(-88.322000002 0 -2.56952522626e-10)
(-88.3219999991 0 2.21560518073e-10)
(-88.3219999998 0 1.10669497459e-10)
(-88.3219999998 0 -2.97784776621e-10)
(-88.3220000001 0 8.44579661767e-10)
(-88.3219999992 0 7.38308556733e-10)
(-88.3219999984 0 4.30681654094e-10)
(-88.3220000002 0 1.71737228283e-10)
(-88.3220000005 0 -4.03296410699e-11)
(-88.3220000002 0 -1.36424632631e-10)
(-88.3219999989 0 -2.58285689766e-10)
(-88.322 0 4.77053780519e-10)
(-88.3220000006 0 6.74772837682e-10)
(-88.3219999999 0 1.56170712832e-11)
(-88.3219999999 0 4.44696769847e-10)
(-88.3219999999 0 3.19771099076e-10)
(-88.322 0 -4.77795130189e-10)
(-88.3220000001 0 2.69433767544e-11)
(-88.3219999998 0 1.00317418409e-10)
(-88.3220000003 0 -6.4688040586e-11)
(-88.3220000004 0 2.32554472945e-10)
(-88.3219999998 0 2.07767871507e-10)
(-88.3219999998 0 -6.10763517599e-10)
(-88.3219999998 0 5.27701283142e-10)
(-88.3219999996 0 4.37410835958e-10)
(-88.3219999997 0 5.8439868622e-10)
(-88.3220000004 0 1.19240425893e-10)
(-88.3220000004 0 -7.89408673342e-10)
(-88.3219999999 0 -2.69150128232e-10)
(-88.3219999998 0 9.61473921124e-10)
(-88.3219999998 0 1.15571667104e-09)
(-88.3220000004 0 -6.95203830656e-10)
(-88.3219999999 0 -6.65268329326e-10)
(-88.3219999998 0 -4.99267074983e-10)
(-88.3219999998 0 -1.31223028469e-10)
(-88.321999999 0 1.25661649686e-10)
(-88.3219999997 0 -5.27280047205e-10)
(-88.3220000015 0 5.87784903523e-10)
(-88.3220000001 0 8.40148505272e-10)
(-88.3219999989 0 -1.64396350064e-10)
(-88.3220000021 0 -3.75092408492e-10)
(-88.3220000008 0 1.0728993163e-10)
(-88.3219999994 0 2.01359054137e-10)
(-88.3220000002 0 1.27465846989e-10)
(-88.3219999988 0 -1.4761118777e-10)
(-88.3220000004 0 -7.86116099947e-12)
(-88.322 0 -5.79608738619e-11)
(-88.3219999999 0 5.03169026609e-12)
(-88.3220000004 0 7.64760389861e-11)
(-88.3219999995 0 5.58022340525e-11)
(-88.3220000001 0 -3.2434775768e-11)
(-88.322 0 2.63489958543e-11)
(-88.322 0 1.43632621737e-11)
(-88.322 0 1.12493654005e-11)
(-88.322 0 6.88840368298e-12)
(-88.3220000002 0 -1.00341197816e-10)
(-88.3219999998 0 3.30601675951e-10)
(-88.3220000002 0 -2.51126971376e-10)
(-88.3220000002 0 -8.39463241775e-11)
(-88.3219999994 0 -2.7968629013e-11)
(-88.3220000002 0 1.55778482056e-10)
(-88.3220000001 0 3.16003056681e-10)
(-88.3219999998 0 -4.36558980084e-10)
(-88.3220000013 0 -5.18862061726e-10)
(-88.3220000001 0 3.06366503305e-10)
(-88.3219999994 0 4.08381681104e-10)
(-88.3220000007 0 5.78627006898e-11)
(-88.3219999981 0 4.37928758929e-10)
(-88.3219999977 0 -9.90360790786e-11)
(-88.3220000002 0 5.41093210433e-10)
(-88.3220000008 0 -2.46372989142e-10)
(-88.322000001 0 -8.24982841676e-11)
(-88.322000001 0 -2.75569541762e-10)
(-88.3220000005 0 5.37153641404e-10)
(-88.3219999989 0 2.13808609273e-11)
(-88.3219999982 0 -3.53002905419e-10)
(-88.3220000014 0 6.24932334811e-11)
(-88.3220000005 0 3.81844019504e-11)
(-88.3219999989 0 5.69916723015e-11)
(-88.322000002 0 -1.08144183075e-10)
(-88.3220000006 0 6.1125866667e-11)
(-88.3219999989 0 -1.9812658073e-10)
(-88.3220000002 0 -1.72742196952e-10)
(-88.3219999998 0 4.0633953721e-10)
(-88.3219999996 0 -3.84869293936e-10)
(-88.3220000013 0 -3.10824583759e-10)
(-88.3219999992 0 -5.98496750899e-11)
(-88.3219999983 0 -1.23682162427e-10)
(-88.3219999998 0 2.47978260299e-11)
(-88.3220000009 0 -3.05183422113e-10)
(-88.3220000022 0 -1.53506017311e-10)
(-88.322 0 5.10776951802e-11)
(-88.3219999981 0 -5.5068926024e-12)
(-88.3219999984 0 -3.59374203909e-12)
(-88.3220000013 0 -4.45151050348e-11)
(-88.322000002 0 3.71893562571e-12)
(-88.322 0 -5.76475798525e-11)
(-88.321999999 0 -7.8081660176e-11)
(-88.3219999988 0 5.11981847695e-11)
(-88.3220000007 0 -3.76669003639e-10)
(-88.3219999996 0 -3.82468902428e-10)
(-88.3219999988 0 -6.41113084454e-10)
(-88.3220000009 0 3.68691381822e-10)
(-88.3220000019 0 -4.99277643827e-10)
(-88.322 0 -3.9113655149e-10)
(-88.3219999989 0 8.73866337691e-10)
(-88.3219999999 0 2.19103770904e-10)
(-88.3220000006 0 -1.19086957418e-10)
(-88.3220000005 0 -5.19459902588e-10)
(-88.3219999996 0 -1.49505793243e-10)
(-88.3219999999 0 6.60941777115e-10)
(-88.3220000001 0 -2.24956967643e-10)
(-88.3219999999 0 -7.05664478215e-11)
(-88.3220000001 0 6.70280701512e-11)
(-88.322 0 1.03552837747e-10)
(-88.3219999999 0 -2.40860914541e-10)
(-88.322 0 7.84396447943e-11)
(-88.322 0 4.76606276082e-11)
(-88.3220000001 0 1.50246261055e-11)
(-88.3219999995 0 -8.3390981129e-12)
(-88.322 0 -5.46835396241e-11)
(-88.3220000005 0 3.41813957759e-11)
(-88.3219999999 0 -5.10463080991e-11)
(-88.3219999997 0 1.45280353168e-10)
(-88.3220000002 0 -5.67311487442e-11)
(-88.3220000004 0 6.21370504997e-11)
(-88.3219999998 0 -6.49123721009e-11)
(-88.3220000001 0 5.14629634909e-11)
(-88.3220000002 0 3.17570543048e-10)
(-88.3219999997 0 -7.93948972404e-12)
(-88.3219999998 0 1.09391431317e-10)
(-88.3220000002 0 4.95751971147e-10)
(-88.3219999999 0 -5.51440413386e-10)
(-88.3219999996 0 -5.48024225978e-10)
(-88.3219999997 0 2.24101000853e-11)
(-88.3220000002 0 2.91520927094e-10)
(-88.3220000006 0 -1.0233489622e-10)
(-88.322 0 1.07986275082e-10)
(-88.3220000006 0 2.4952509592e-10)
(-88.3219999998 0 -4.42379952765e-10)
(-88.3219999998 0 -7.06635111239e-10)
(-88.3219999999 0 1.82628572462e-10)
(-88.3220000002 0 -4.4701974187e-10)
(-88.3219999999 0 -3.62793307508e-10)
(-88.3220000001 0 4.74572521227e-10)
(-88.3220000005 0 -5.08981072497e-11)
(-88.3219999985 0 -1.23864688006e-10)
(-88.3220000008 0 1.00340190435e-10)
(-88.322000002 0 -2.12643245324e-10)
(-88.3219999992 0 -1.00499763323e-10)
(-88.3219999993 0 4.18918771152e-10)
(-88.3219999996 0 -5.26074118996e-10)
(-88.322 0 -3.68531071605e-10)
(-88.322 0 -5.68606429429e-10)
(-88.3219999998 0 2.94570756746e-11)
(-88.3220000002 0 5.05102457184e-10)
(-88.322 0 2.13265634072e-11)
(-88.3219999999 0 -4.00327794536e-10)
(-88.3219999998 0 -7.79799829908e-10)
(-88.3220000005 0 2.3886074445e-10)
(-88.322 0 1.87188922426e-10)
(-88.3219999996 0 2.80125316703e-10)
(-88.3220000004 0 -2.73986622842e-10)
(-88.3219999998 0 -3.21269624724e-10)
(-88.3220000002 0 8.8020025808e-11)
(-88.3219999999 0 -5.49524927761e-10)
(-88.322 0 -5.3111396711e-10)
(-88.3220000003 0 -8.91830824529e-11)
(-88.3219999994 0 4.3051677914e-10)
(-88.3219999996 0 -9.25499920267e-11)
(-88.3220000014 0 -1.11492966564e-10)
(-88.3220000017 0 -1.25176326301e-10)
(-88.3219999989 0 -5.77908622562e-11)
(-88.3219999979 0 2.57473706644e-10)
(-88.3220000002 0 -6.63699843951e-11)
(-88.3220000014 0 1.15859860877e-10)
(-88.3219999999 0 -4.05107847294e-11)
(-88.3219999992 0 -2.95508026697e-11)
(-88.3220000007 0 5.28855009328e-11)
(-88.322 0 -1.83202375443e-11)
(-88.3219999994 0 -1.44054630287e-11)
(-88.3220000002 0 -5.70546807604e-11)
(-88.3220000001 0 -2.24574643095e-11)
(-88.3220000003 0 5.43090364403e-11)
(-88.3219999997 0 -2.17588054195e-10)
(-88.3220000002 0 7.33929856133e-11)
(-88.322 0 1.45145164999e-10)
(-88.3219999994 0 -1.92719791564e-10)
(-88.3220000003 0 -2.49384818152e-10)
(-88.3220000001 0 1.54434224691e-10)
(-88.3219999998 0 6.58573862402e-10)
(-88.3220000006 0 6.32894207761e-10)
(-88.3220000003 0 -2.69752452444e-10)
(-88.3219999999 0 -4.09503857048e-10)
(-88.3219999998 0 -2.88563692193e-10)
(-88.3219999995 0 -4.92763272194e-10)
(-88.3219999998 0 1.86492532666e-10)
(-88.3219999991 0 -4.71533093307e-10)
(-88.3219999992 0 3.58893989507e-10)
(-88.3220000013 0 -2.17525286995e-10)
(-88.3220000005 0 1.6781074169e-10)
(-88.3220000003 0 -3.3712612418e-10)
(-88.322 0 4.45338778343e-11)
(-88.322 0 -5.85093584199e-11)
(-88.322 0 9.95631547656e-12)
(-88.322 0 -8.34401998715e-11)
(-88.322 0 9.9148669675e-11)
(-88.322 0 5.14912290645e-11)
(-88.322 0 -1.05509702871e-10)
(-88.3220000001 0 1.95660158149e-10)
(-88.322 0 1.66690761713e-10)
(-88.322 0 -4.96270794326e-10)
(-88.322 0 5.86460411096e-10)
(-88.322 0 5.43078415279e-10)
(-88.3220000001 0 5.78332163977e-11)
(-88.3219999999 0 1.23466038539e-10)
(-88.322 0 -5.52142910383e-11)
(-88.322 0 1.02934957749e-10)
(-88.322 0 -9.72973753774e-12)
(-88.322 0 -3.89476257905e-12)
(-88.322 0 2.34363772267e-11)
(-88.322 0 -3.11721156123e-11)
(-88.322 0 1.50105940944e-11)
(-88.322 0 -2.70107829314e-11)
(-88.322 0 2.15617401141e-10)
(-88.322 0 -9.01579095776e-11)
(-88.322 0 -4.79448472035e-11)
(-88.322 0 1.14649362097e-10)
(-88.322 0 -2.25688795651e-11)
(-88.322 0 5.85518832439e-11)
(-88.322 0 -2.46730373529e-10)
(-88.322 0 5.82622387896e-11)
(-88.322 0 -1.23091899785e-10)
(-88.322 0 -2.08290462576e-12)
(-88.322 0 1.83144608265e-10)
(-88.3220000004 0 -2.19857696745e-10)
(-88.3219999998 0 1.89380180549e-10)
(-88.3219999996 0 -2.31103397242e-10)
(-88.3220000001 0 -7.64169417364e-10)
(-88.322 0 2.03841484351e-10)
(-88.3220000001 0 3.45421981161e-10)
(-88.322 0 -5.26843906527e-11)
(-88.322 0 -1.00437731853e-10)
(-88.322 0 2.45757144703e-10)
(-88.3220000001 0 -1.14316024723e-10)
(-88.322 0 -4.15982751854e-11)
(-88.3219999999 0 -3.72170040971e-11)
(-88.322 0 -7.68005614462e-11)
(-88.322 0 1.7722409935e-10)
(-88.3219999998 0 -7.5829977348e-12)
(-88.3220000004 0 2.39515728082e-10)
(-88.3220000005 0 -6.57729710933e-11)
(-88.3219999995 0 -9.0674400612e-11)
(-88.3219999986 0 -2.06646629739e-10)
(-88.3219999988 0 7.71153109173e-11)
(-88.322000002 0 1.44199036003e-10)
(-88.3220000024 0 -2.37844044204e-10)
(-88.3219999996 0 -1.14938049605e-10)
(-88.3219999999 0 -1.81625994369e-11)
(-88.3219999992 0 -1.38756387986e-10)
(-88.3219999998 0 7.60940784911e-11)
(-88.3219999993 0 6.44652313402e-11)
(-88.3219999992 0 -1.07107940107e-09)
(-88.3220000006 0 -9.73085417158e-10)
(-88.322 0 -2.46301040568e-10)
(-88.3219999996 0 1.83292542359e-10)
(-88.3220000001 0 1.2725468614e-10)
(-88.3219999998 0 -1.95192509288e-10)
(-88.3219999999 0 -6.62525863911e-11)
(-88.3219999997 0 9.65219263382e-11)
(-88.3219999999 0 6.90576837906e-11)
(-88.3220000003 0 -1.6200724064e-10)
(-88.3219999999 0 -1.89277071248e-10)
(-88.322 0 -3.04836849714e-11)
(-88.322 0 -9.72629813021e-11)
(-88.322 0 2.65032951889e-11)
(-88.3219999999 0 -3.99767370735e-11)
(-88.3220000002 0 -2.31556432866e-11)
(-88.3220000001 0 -2.17160465152e-11)
(-88.3219999998 0 -3.70626573387e-11)
(-88.322 0 -4.82274975764e-11)
(-88.322 0 -4.89041749991e-11)
(-88.322 0 -2.97570829054e-12)
(-88.322 0 5.84561906043e-11)
(-88.322 0 -1.74134156906e-10)
(-88.3219999998 0 -7.64989708788e-11)
(-88.3219999998 0 5.72964224097e-10)
(-88.322 0 3.93120410307e-10)
(-88.3220000001 0 -4.94788561603e-10)
(-88.3220000001 0 -3.60659866152e-10)
(-88.322 0 -1.00306390005e-10)
(-88.3219999998 0 8.15565164751e-11)
(-88.3220000003 0 -1.98846977136e-10)
(-88.3220000004 0 1.5449196016e-10)
(-88.322 0 -1.58438249914e-10)
(-88.3220000002 0 -4.1501706079e-10)
(-88.3219999996 0 -3.40576792926e-10)
(-88.321999999 0 3.27983818476e-10)
(-88.3220000018 0 -4.57583730756e-10)
(-88.3220000017 0 -4.89859593433e-10)
(-88.321999999 0 -4.29883282377e-10)
(-88.3219999998 0 4.74902762781e-10)
(-88.3219999993 0 3.40753736505e-10)
(-88.321999999 0 -3.89916664381e-10)
(-88.3220000003 0 -2.42132107701e-10)
(-88.322 0 5.67840442583e-10)
(-88.322 0 1.37699017716e-10)
(-88.3220000001 0 -3.97755193651e-10)
(-88.322 0 -6.13370468905e-10)
(-88.322 0 2.40999735717e-10)
(-88.3220000002 0 -2.44686666341e-10)
(-88.3219999998 0 -1.12218856801e-10)
(-88.3219999996 0 -5.29505225072e-10)
(-88.322 0 4.2208542295e-10)
(-88.3220000002 0 -1.53912631167e-10)
(-88.322 0 7.52554257461e-11)
(-88.3220000007 0 3.59248510207e-10)
(-88.3219999998 0 -4.54351523079e-10)
(-88.3219999991 0 -1.05188164408e-09)
(-88.3220000011 0 -1.26077317344e-09)
(-88.3220000008 0 -4.77078917807e-10)
(-88.3219999995 0 1.09634635287e-09)
(-88.3219999998 0 6.25111771719e-10)
(-88.3219999992 0 -7.89341316188e-11)
(-88.3219999994 0 -7.86977310463e-10)
(-88.3220000014 0 8.26428402659e-10)
(-88.3220000012 0 -4.81655788317e-11)
(-88.3219999995 0 -1.97659039043e-10)
(-88.3219999993 0 -4.8588947342e-11)
(-88.322 0 1.10984089188e-10)
(-88.3220000008 0 4.55387776267e-11)
(-88.3220000004 0 3.1746202272e-10)
(-88.3219999995 0 -2.47426046663e-10)
(-88.3219999998 0 2.23805930128e-10)
(-88.3220000006 0 -2.83681217402e-10)
(-88.3220000005 0 2.80852822645e-10)
(-88.3219999997 0 3.15415585835e-10)
(-88.322 0 -2.58060294037e-10)
(-88.3219999998 0 -4.41326780826e-10)
(-88.322 0 -1.25845022588e-10)
(-88.3220000001 0 -4.94537514637e-10)
(-88.322 0 -4.5998902547e-10)
(-88.322 0 -1.1850441875e-10)
(-88.322 0 7.20110184542e-11)
(-88.322 0 5.27972499844e-11)
(-88.3219999999 0 1.24550329106e-10)
(-88.3219999998 0 -3.9664465726e-10)
(-88.3220000004 0 -7.87400024155e-10)
(-88.3220000002 0 3.56356300315e-10)
(-88.3219999985 0 3.42454972424e-10)
(-88.3219999991 0 8.14722432705e-10)
(-88.3220000022 0 -5.22723277931e-10)
(-88.3220000015 0 -5.22326107639e-10)
(-88.3219999992 0 3.35129809105e-10)
(-88.3219999992 0 3.1831305912e-10)
(-88.3220000002 0 3.15328250055e-10)
(-88.3219999999 0 1.01463536826e-10)
(-88.322 0 3.73840729324e-10)
(-88.3220000011 0 1.03760796543e-10)
(-88.3220000003 0 5.86416364191e-11)
(-88.3219999985 0 9.90790814348e-11)
(-88.3220000002 0 -1.54442514179e-10)
(-88.3220000016 0 -4.07084168819e-10)
(-88.3220000004 0 5.828136022e-10)
(-88.3219999979 0 8.83789584711e-10)
(-88.321999998 0 5.75035343323e-10)
(-88.3220000017 0 7.91509374812e-10)
(-88.3220000012 0 -5.88767280172e-10)
(-88.3219999982 0 -6.26439353755e-11)
(-88.3219999992 0 5.12438242323e-11)
(-88.322000002 0 -8.11530000386e-11)
(-88.3220000014 0 6.67306087547e-11)
(-88.3219999987 0 -1.21955618437e-10)
(-88.3219999993 0 5.96778806675e-11)
(-88.3220000006 0 -1.29850623244e-10)
(-88.3220000006 0 -3.27881442454e-10)
(-88.3219999988 0 2.64234622051e-10)
(-88.321999999 0 3.75051445746e-10)
(-88.3220000011 0 5.06535013297e-10)
(-88.3219999994 0 -3.60607406119e-10)
(-88.3220000005 0 -3.62923890856e-10)
(-88.3220000013 0 8.27120112793e-10)
(-88.3220000004 0 1.39484793382e-10)
(-88.3220000009 0 1.24507201131e-10)
(-88.3219999978 0 3.66876774131e-10)
(-88.3219999975 0 5.81394237354e-10)
(-88.3220000023 0 7.21727876897e-10)
(-88.3220000019 0 -2.70827287123e-10)
(-88.3219999979 0 -4.7580970742e-10)
(-88.3219999978 0 -1.98905747838e-10)
(-88.3220000012 0 4.69956030327e-10)
(-88.3220000006 0 4.59957496681e-10)
(-88.3219999992 0 3.16384168854e-10)
(-88.322 0 -2.31133396166e-10)
(-88.3219999997 0 -2.35696557099e-10)
(-88.3220000004 0 1.61018180518e-10)
(-88.322 0 -2.66031233038e-11)
(-88.3219999998 0 -8.78045474095e-11)
(-88.3219999998 0 -1.42881560428e-10)
(-88.3219999991 0 1.67510938435e-10)
(-88.322000001 0 1.35414011332e-10)
(-88.3220000015 0 4.91483553838e-11)
(-88.3219999997 0 -4.51673186041e-11)
(-88.322 0 -4.043820759e-10)
(-88.3220000005 0 -2.02514221673e-11)
(-88.3219999995 0 -1.04888590429e-10)
(-88.321999999 0 -1.31033842472e-10)
(-88.3219999994 0 9.40141252927e-11)
(-88.3219999999 0 -1.4020423209e-10)
(-88.3220000009 0 -1.23113253422e-11)
(-88.3220000018 0 -6.33826295888e-12)
(-88.3219999986 0 -7.23965958659e-11)
(-88.3219999978 0 2.05488363843e-10)
(-88.3219999989 0 -6.10528975933e-12)
(-88.3220000016 0 -3.91180218251e-10)
(-88.3220000027 0 -2.48722910822e-10)
(-88.3219999985 0 3.43773200194e-10)
(-88.3219999984 0 5.0620406763e-10)
(-88.322 0 9.67152469633e-11)
(-88.3220000001 0 -4.67943502646e-11)
(-88.3220000001 0 2.02736103237e-10)
(-88.3220000004 0 -1.07889606134e-10)
(-88.3220000006 0 1.71516261322e-10)
(-88.3220000001 0 4.22203065506e-10)
(-88.322 0 3.36387577355e-10)
(-88.3219999998 0 -3.14914812806e-10)
(-88.3220000004 0 5.64152665105e-10)
(-88.3219999993 0 2.60793202881e-10)
(-88.3219999988 0 6.82604116838e-10)
(-88.3220000001 0 -5.28115188889e-10)
(-88.3220000016 0 -3.45221293932e-10)
(-88.3220000007 0 5.41131512838e-10)
(-88.3219999991 0 1.90237588594e-10)
(-88.322 0 -5.85072114636e-10)
(-88.3220000001 0 -1.32095800438e-10)
(-88.3220000002 0 3.78244505112e-10)
(-88.322 0 6.42941161375e-10)
(-88.3219999999 0 -4.33454786387e-10)
(-88.3220000009 0 2.45213613301e-10)
(-88.3219999991 0 8.269298467e-11)
(-88.3219999982 0 5.44657864312e-10)
(-88.3219999996 0 -4.51341784201e-10)
(-88.3220000017 0 2.95497958531e-11)
(-88.3220000018 0 1.78687466495e-10)
(-88.3219999983 0 -6.46194004191e-10)
(-88.3219999988 0 1.20296800168e-10)
(-88.3220000005 0 8.42703193574e-10)
(-88.3220000007 0 8.04244533679e-10)
(-88.322 0 5.1764560701e-10)
(-88.3219999989 0 -4.48774174116e-10)
(-88.3220000014 0 -6.35834778155e-10)
(-88.3220000015 0 5.37052797357e-10)
(-88.3219999994 0 5.4679779795e-10)
(-88.3219999996 0 -4.49000465723e-10)
(-88.322 0 -5.49763865831e-10)
(-88.3219999999 0 1.45216354453e-10)
(-88.322 0 -1.80059523448e-10)
(-88.322 0 -4.66866815534e-11)
(-88.322 0 1.4663895014e-10)
(-88.322 0 -2.62893299321e-10)
(-88.322 0 1.80395237312e-10)
(-88.322 0 -1.48703085918e-10)
(-88.322 0 1.49314789143e-10)
(-88.322 0 -2.56476514555e-10)
(-88.322 0 -1.65789432477e-10)
(-88.3220000003 0 -2.42476845438e-10)
(-88.3220000007 0 1.68097880843e-11)
(-88.3219999999 0 4.02271048254e-10)
(-88.3219999995 0 1.89782466883e-10)
(-88.3220000002 0 -1.54496592363e-10)
(-88.3219999997 0 -3.18525979922e-10)
(-88.322 0 1.73427089057e-10)
(-88.3220000002 0 2.22382721789e-10)
(-88.3219999996 0 -2.86475653838e-10)
(-88.322 0 4.5314202848e-10)
(-88.322 0 7.85199679183e-10)
(-88.3220000001 0 -3.31680472688e-10)
(-88.3219999997 0 -3.51402833105e-10)
(-88.3219999996 0 -8.45080719433e-10)
(-88.3220000006 0 4.26685118363e-10)
(-88.322 0 4.7514329021e-10)
(-88.3219999998 0 -3.63319558453e-10)
(-88.3220000002 0 -3.26587461368e-10)
(-88.3219999999 0 -3.75555706406e-10)
(-88.322 0 -2.46025566124e-10)
(-88.322 0 -2.468170418e-10)
(-88.322 0 -1.25095583665e-10)
(-88.322 0 1.33973794662e-10)
(-88.322 0 1.4041803475e-10)
(-88.3219999997 0 -1.60975830522e-10)
(-88.3220000004 0 4.06964182261e-10)
(-88.3220000003 0 -3.2232123412e-10)
(-88.3219999995 0 -7.99748449281e-10)
(-88.322 0 -6.21883748155e-10)
(-88.3219999997 0 -1.71013690608e-10)
(-88.3220000002 0 -2.40453372059e-11)
(-88.3220000005 0 -5.00149878137e-10)
(-88.3219999998 0 2.40225642211e-10)
(-88.322 0 3.95388728096e-10)
(-88.322 0 -3.89644103438e-10)
(-88.3220000004 0 8.52761409702e-11)
(-88.3220000002 0 -5.49539958967e-10)
(-88.3219999996 0 -4.79462734484e-10)
(-88.322 0 1.73422946334e-10)
(-88.3219999998 0 -8.75742698144e-10)
(-88.322 0 -5.40730338426e-10)
(-88.3219999999 0 -5.37758507696e-10)
(-88.3220000008 0 2.358902462e-10)
(-88.3220000007 0 2.97988714927e-10)
(-88.3219999984 0 -6.35435307145e-10)