/*--------------------------------*- C++ -*----------------------------------*\
  =========                 |
  \\      /  F ield         | OpenFOAM: The Open Source CFD Toolbox
   \\    /   O peration     | Website:  https://openfoam.org
    \\  /    A nd           | Version:  6
     \\/     M anipulation  |
\*---------------------------------------------------------------------------*/
FoamFile
{
    version     2.0;
    format      ascii;
    class       volVectorField;
    location    "4.54e-05";
    object      U;
}
// * * * * * * * * * * * * * * * * * * * * * * * * * * * * * * * * * * * * * //

dimensions      [0 1 -1 0 0 0 0];

internalField   nonuniform List<vector> 
8192
(
(-88.3220000001 0 -2.7447332942e-10)
(-88.3219999996 0 -5.88404509693e-11)
(-88.3220000001 0 -6.68822298632e-11)
(-88.3220000002 0 -2.14146270689e-10)
(-88.3219999996 0 -5.99918304251e-11)
(-88.3219999998 0 2.14801184503e-11)
(-88.3220000002 0 -2.54100463071e-12)
(-88.322 0 6.66502974483e-11)
(-88.322 0 -2.245970792e-10)
(-88.322 0 -5.40870018691e-10)
(-88.3219999999 0 -6.36635332961e-10)
(-88.322 0 3.31584136626e-10)
(-88.3220000001 0 6.22236230003e-10)
(-88.322 0 -6.65953263961e-10)
(-88.3219999999 0 -5.95383899665e-10)
(-88.3219999999 0 3.17123577964e-10)
(-88.3219999999 0 2.18594580983e-10)
(-88.3219999999 0 5.4836663731e-10)
(-88.3220000001 0 -4.05936201624e-10)
(-88.322 0 -4.93348048064e-10)
(-88.3219999997 0 2.55517555329e-10)
(-88.3220000003 0 3.52910471853e-10)
(-88.3220000002 0 -5.05838210741e-10)
(-88.3219999999 0 -5.16381519437e-10)
(-88.322 0 1.42591642252e-10)
(-88.3219999999 0 1.42608119039e-10)
(-88.3219999999 0 1.82863941037e-10)
(-88.3219999999 0 1.51040021357e-10)
(-88.3220000002 0 2.53411022414e-10)
(-88.3220000001 0 -1.25808839484e-10)
(-88.3219999999 0 1.84508204034e-10)
(-88.3219999997 0 -2.16215372142e-11)
(-88.3219999991 0 1.03265856275e-10)
(-88.3220000016 0 4.77626483622e-10)
(-88.3220000022 0 -7.10981799279e-10)
(-88.3219999989 0 -5.72704106832e-10)
(-88.3219999997 0 -2.40270728959e-11)
(-88.3219999996 0 -5.13741264248e-10)
(-88.3219999987 0 1.7265825292e-10)
(-88.3220000005 0 1.41894080349e-10)
(-88.3220000001 0 -2.80033743448e-11)
(-88.3219999999 0 3.96019688239e-11)
(-88.3220000001 0 -1.20989727797e-11)
(-88.322 0 -1.40869889012e-11)
(-88.322 0 -5.12071783697e-11)
(-88.322 0 -2.99382292374e-11)
(-88.322 0 -1.64044584372e-11)
(-88.322 0 -1.48688997262e-11)
(-88.322 0 1.48186101826e-11)
(-88.3219999999 0 -6.90474772118e-11)
(-88.3219999999 0 8.61398601531e-11)
(-88.3220000005 0 -3.57085308202e-11)
(-88.3219999995 0 -1.78254544054e-10)
(-88.3219999994 0 2.84974370266e-10)
(-88.3220000011 0 1.60123026548e-10)
(-88.3220000005 0 -2.15673023237e-10)
(-88.3219999999 0 -4.05955016578e-11)
(-88.3219999998 0 -1.50606031032e-10)
(-88.3220000001 0 -3.55554548147e-11)
(-88.3219999993 0 -2.57959641273e-10)
(-88.3219999986 0 3.03165738967e-10)
(-88.3219999998 0 3.65768124436e-10)
(-88.3220000008 0 3.43805916085e-10)
(-88.3220000013 0 1.79167182851e-11)
(-88.322 0 -2.58276940335e-10)
(-88.3219999999 0 -7.42599272674e-11)
(-88.3220000001 0 8.96337367214e-11)
(-88.3219999998 0 6.00430229989e-12)
(-88.322 0 1.83025685168e-10)
(-88.3220000001 0 -1.04866345053e-10)
(-88.3219999996 0 3.29993697665e-11)
(-88.3220000005 0 5.14588979282e-12)
(-88.3220000012 0 -2.15522557238e-12)
(-88.3220000007 0 -4.8166791716e-11)
(-88.3219999983 0 5.27362798076e-11)
(-88.3219999975 0 -1.94014377306e-10)
(-88.3220000018 0 -2.00102002234e-11)
(-88.3220000023 0 -1.57652562771e-10)
(-88.3219999982 0 -2.64657012061e-10)
(-88.3219999985 0 2.52442899746e-10)
(-88.3219999997 0 1.73925918836e-10)
(-88.3220000014 0 1.39987510508e-10)
(-88.322000002 0 -2.91873070669e-10)
(-88.3219999988 0 -1.71771508406e-10)
(-88.3219999986 0 -3.55281619009e-11)
(-88.3220000013 0 2.05172762062e-11)
(-88.3220000015 0 1.7487880827e-10)
(-88.3219999989 0 -6.34409938017e-11)
(-88.3219999987 0 3.94343943691e-10)
(-88.322 0 -2.11691680743e-10)
(-88.3220000001 0 3.03111564335e-10)
(-88.3219999999 0 2.65671349865e-10)
(-88.3220000004 0 -3.08260379636e-11)
(-88.322 0 3.73622704056e-11)
(-88.3219999999 0 5.10385266306e-11)
(-88.3220000004 0 6.90043429347e-12)
(-88.3219999999 0 -1.87048549434e-10)
(-88.3220000002 0 -4.13112456217e-10)
(-88.322 0 4.77428679371e-10)
(-88.3219999996 0 5.67349413278e-10)
(-88.3220000001 0 -3.19805101342e-12)
(-88.322 0 2.88148981557e-10)
(-88.322 0 -1.74446934334e-10)
(-88.322 0 -1.71357313224e-10)
(-88.322 0 9.56199078555e-11)
(-88.322 0 -5.8391401962e-11)
(-88.322 0 4.12232169351e-11)
(-88.322 0 -1.55329902017e-10)
(-88.322 0 -3.77774445257e-10)
(-88.322 0 -3.07257717705e-10)
(-88.322 0 -3.01576002519e-10)
(-88.322 0 -3.40060506924e-10)
(-88.322 0 -3.38282441967e-10)
(-88.322 0 -1.0333657996e-10)
(-88.322 0 2.8435108197e-10)
(-88.3220000001 0 -6.98324074512e-11)
(-88.3219999999 0 4.73414177518e-11)
(-88.322 0 -8.46583618428e-11)
(-88.3220000001 0 -2.50710401328e-10)
(-88.322 0 4.00528734975e-10)
(-88.322 0 -1.45398302193e-10)
(-88.3220000001 0 -1.85948224985e-10)
(-88.322 0 -3.846145496e-10)
(-88.3219999999 0 7.57956078505e-10)
(-88.322 0 2.83785703032e-10)
(-88.3220000001 0 -7.69707149133e-10)
(-88.3220000001 0 -9.95051485002e-10)
(-88.322 0 -4.14061280194e-10)
(-88.3219999994 0 5.49749258993e-11)
(-88.321999999 0 7.08642208602e-11)
(-88.322 0 -2.1418897514e-11)
(-88.322 0 1.56136492268e-10)
(-88.3219999999 0 -1.13628856178e-10)
(-88.322 0 1.11100139037e-10)
(-88.322 0 -2.86808735932e-11)
(-88.322 0 -6.63368604144e-11)
(-88.3220000001 0 1.97332274206e-10)
(-88.3219999999 0 5.06671889908e-10)
(-88.3220000002 0 5.95012179999e-10)
(-88.3220000001 0 -2.5731562366e-10)
(-88.322 0 -5.52968262141e-10)
(-88.3220000005 0 5.10588727267e-10)
(-88.321999999 0 5.36102987834e-10)
(-88.321999999 0 -3.31095161605e-10)
(-88.3220000001 0 -2.25449728765e-10)
(-88.3220000008 0 -5.02054639943e-10)
(-88.3220000008 0 4.29827213338e-10)
(-88.3219999995 0 4.61492845184e-10)
(-88.3219999994 0 -2.2791187134e-10)
(-88.3219999998 0 -2.22079276515e-10)
(-88.3220000004 0 4.89640790757e-10)
(-88.3219999995 0 5.09894844669e-10)
(-88.3220000003 0 -7.57433058782e-11)
(-88.322 0 -1.31412144647e-10)
(-88.321999999 0 -7.96262016662e-11)
(-88.3220000007 0 6.71815234777e-11)
(-88.3220000007 0 -3.22902281571e-11)
(-88.322 0 2.19706507441e-11)
(-88.322 0 8.80767435456e-11)
(-88.3220000003 0 -1.55207510298e-11)
(-88.322 0 -4.22215978633e-10)
(-88.322 0 3.95962552437e-10)
(-88.3220000001 0 5.56981999569e-10)
(-88.322 0 -3.30386665487e-10)
(-88.3220000003 0 -6.13211642564e-10)
(-88.322 0 7.5389772358e-10)
(-88.3219999997 0 3.71053819829e-10)
(-88.322 0 -3.56764618607e-10)
(-88.322 0 -4.01109811876e-10)
(-88.322 0 1.49749912278e-10)
(-88.3220000003 0 -2.53600563996e-10)
(-88.322000001 0 -5.71464686458e-11)
(-88.3220000003 0 -2.994228763e-10)
(-88.3219999998 0 5.42470391262e-11)
(-88.322 0 -5.25208003589e-10)
(-88.3219999999 0 -5.75025741117e-10)
(-88.3219999995 0 4.30972588121e-10)
(-88.3219999987 0 1.65722723544e-11)
(-88.3219999999 0 -3.31336802271e-10)
(-88.3220000009 0 1.56172643379e-10)
(-88.3219999996 0 -4.08121357687e-10)
(-88.322 0 3.71410162584e-10)
(-88.322 0 4.35209373419e-11)
(-88.3220000003 0 -3.20426540763e-10)
(-88.3220000011 0 -3.28920542111e-10)
(-88.3220000004 0 -3.4620622479e-10)
(-88.3219999983 0 -1.58031716322e-10)
(-88.321999998 0 -1.58356888226e-10)
(-88.3220000018 0 -1.41601498813e-10)
(-88.3220000024 0 7.65128165813e-11)
(-88.322 0 4.55861423189e-11)
(-88.3219999999 0 6.23313342532e-11)
(-88.322 0 5.70105492145e-10)
(-88.322 0 1.66693699548e-10)
(-88.322 0 -1.65291457927e-11)
(-88.322 0 1.38984580124e-10)
(-88.322 0 -1.57850077967e-10)
(-88.322 0 3.00942801503e-11)
(-88.322 0 1.01174923088e-11)
(-88.322 0 3.27217016297e-11)
(-88.322 0 1.64294036805e-11)
(-88.322 0 8.25209867506e-11)
(-88.3219999999 0 -2.11272528823e-11)
(-88.3219999998 0 1.45668756537e-10)
(-88.3220000004 0 -4.56201582288e-12)
(-88.3220000001 0 3.12570201002e-10)
(-88.3219999999 0 3.03290894728e-10)
(-88.322 0 -2.40916526944e-10)
(-88.322 0 -1.66874335132e-10)
(-88.322 0 -2.45196835697e-10)
(-88.322 0 4.17335033263e-10)
(-88.322 0 3.98077212902e-10)
(-88.322 0 -4.52960908589e-10)
(-88.3219999999 0 -5.10742260951e-10)
(-88.322 0 2.99224015362e-10)
(-88.322 0 4.51069977525e-10)
(-88.322 0 -1.77759168878e-10)
(-88.322 0 5.309999936e-10)
(-88.3219999997 0 -1.9260680991e-10)
(-88.3219999998 0 2.0358754735e-11)
(-88.3220000005 0 -1.05721542428e-10)
(-88.3219999998 0 -2.21532601121e-10)
(-88.3219999999 0 6.53380845128e-11)
(-88.3220000013 0 -7.53347322115e-11)
(-88.321999999 0 4.56008894461e-12)
(-88.3219999984 0 -6.63539510772e-11)
(-88.3220000014 0 3.93450667951e-11)
(-88.3220000019 0 8.31998912134e-11)
(-88.321999998 0 -6.0791480695e-11)
(-88.3219999981 0 3.23793225823e-10)
(-88.3220000021 0 -1.29383836482e-11)
(-88.3220000015 0 2.93888774059e-11)
(-88.3219999989 0 -5.12181368616e-11)
(-88.3219999998 0 -7.60909319543e-12)
(-88.3220000004 0 -5.81624881148e-11)
(-88.3220000001 0 1.57318103224e-10)
(-88.3219999998 0 4.07151207367e-10)
(-88.3220000004 0 3.05137468372e-10)
(-88.3220000012 0 3.16449927196e-10)
(-88.3219999981 0 2.38660328873e-10)
(-88.321999999 0 4.61253999328e-10)
(-88.3220000015 0 1.97416426188e-10)
(-88.3219999998 0 -3.29710524123e-10)
(-88.3220000003 0 1.05663025971e-10)
(-88.3219999994 0 -1.59829967104e-10)
(-88.3219999991 0 2.47202985525e-10)
(-88.3220000014 0 5.11029409254e-10)
(-88.3220000007 0 -4.99031833905e-10)
(-88.322 0 -1.24861091678e-10)
(-88.3219999998 0 4.06109718168e-10)
(-88.3219999997 0 7.80357083174e-11)
(-88.3219999998 0 -4.14479767514e-10)
(-88.3219999996 0 -9.22220339605e-10)
(-88.3219999998 0 7.9912168728e-10)
(-88.3220000001 0 8.58900290434e-10)
(-88.322 0 6.53830694158e-10)
(-88.3220000004 0 -2.88575184707e-10)
(-88.3220000001 0 -9.385181885e-11)
(-88.322 0 1.74195708775e-10)
(-88.3220000003 0 -2.76873966518e-11)
(-88.322 0 -4.45722230526e-11)
(-88.3219999997 0 -1.0683432148e-11)
(-88.322 0 8.17010349165e-12)
(-88.322 0 2.36414608563e-11)
(-88.322 0 1.95592301727e-11)
(-88.322 0 -2.94135646407e-12)
(-88.322 0 5.1518293045e-11)
(-88.3220000001 0 -2.10431526807e-10)
(-88.3219999998 0 -2.24189470195e-10)
(-88.3219999999 0 1.83854759607e-11)
(-88.3220000001 0 -2.11693229453e-11)
(-88.322 0 2.77687738662e-11)
(-88.3220000001 0 1.18244711655e-10)
(-88.3219999996 0 1.22705082577e-10)
(-88.3219999995 0 -1.6293845906e-11)
(-88.3220000012 0 4.85487324513e-12)
(-88.3220000011 0 2.16862454052e-11)
(-88.3219999983 0 1.44536904804e-11)
(-88.3219999985 0 5.85698934975e-11)
(-88.3220000004 0 -1.21678661752e-10)
(-88.3220000001 0 1.01249179099e-10)
(-88.3220000001 0 3.40243372937e-12)
(-88.3219999999 0 2.21196186935e-10)
(-88.3220000004 0 2.62456570265e-10)
(-88.322000001 0 3.21548284245e-10)
(-88.3219999995 0 -1.72980716958e-11)
(-88.3219999996 0 1.56087251036e-10)
(-88.3220000003 0 3.50928746735e-10)
(-88.322 0 -2.63579727054e-11)
(-88.322 0 -4.88196424687e-10)
(-88.3219999999 0 -6.9950569168e-10)
(-88.3220000001 0 1.29618394618e-10)
(-88.3219999998 0 7.68353096853e-10)
(-88.3219999999 0 -9.73878845399e-10)
(-88.3220000002 0 -2.75772224714e-10)
(-88.322 0 1.89401524402e-10)
(-88.322 0 3.52146750533e-10)
(-88.322 0 -1.28668317584e-10)
(-88.322 0 2.24275080933e-10)
(-88.322 0 6.07573435967e-11)
(-88.322 0 2.74997049304e-10)
(-88.322 0 -4.25463153448e-11)
(-88.3220000001 0 5.22900947075e-10)
(-88.3219999998 0 5.01618132764e-10)
(-88.3219999997 0 -3.77467507271e-10)
(-88.3220000003 0 -1.01303529406e-10)
(-88.322 0 2.53157216958e-10)
(-88.3220000006 0 -1.85669305478e-11)
(-88.3219999994 0 3.28476684419e-10)
(-88.3219999987 0 -3.62485601142e-10)
(-88.3220000014 0 -5.42071289198e-11)
(-88.3220000015 0 -2.18794556666e-10)
(-88.3219999993 0 1.13038018049e-10)
(-88.322 0 1.19556209468e-10)
(-88.3219999998 0 -3.02814192893e-10)
(-88.322 0 7.04130799236e-10)
(-88.3219999993 0 5.68632035971e-10)
(-88.3219999988 0 3.59914900599e-10)
(-88.3220000002 0 1.53794670005e-10)
(-88.3220000003 0 7.60951580507e-12)
(-88.3220000002 0 -8.59880430732e-11)
(-88.3219999991 0 -1.81806822849e-10)
(-88.322 0 3.47335160611e-10)
(-88.3220000004 0 5.61477704479e-10)
(-88.322 0 -3.4969925055e-11)
(-88.3219999999 0 4.16050108349e-10)
(-88.322 0 3.32205670991e-10)
(-88.322 0 -3.81763995658e-10)
(-88.322 0 6.83046572139e-12)
(-88.3219999999 0 8.49700058964e-11)
(-88.3220000002 0 -3.06080409242e-11)
(-88.3220000003 0 1.44202795475e-10)
(-88.3219999999 0 1.55984726065e-10)
(-88.3219999999 0 -4.33701902158e-10)
(-88.3219999999 0 4.71200034455e-10)
(-88.3219999998 0 3.818866181e-10)
(-88.3219999998 0 4.66199695608e-10)
(-88.3220000003 0 1.12159973279e-10)
(-88.3220000002 0 -5.83967223098e-10)
(-88.322 0 -2.30425186917e-10)
(-88.3219999999 0 8.2381740612e-10)
(-88.3219999999 0 1.00632952802e-09)
(-88.3220000003 0 -5.70337894967e-10)
(-88.3219999999 0 -5.74016712059e-10)
(-88.3219999998 0 -3.99331246052e-10)
(-88.3219999998 0 -3.23298327433e-11)
(-88.3219999992 0 1.1025593544e-10)
(-88.3219999996 0 -3.78901556106e-10)
(-88.3220000011 0 4.62898667402e-10)
(-88.3220000001 0 5.9704655287e-10)
(-88.3219999992 0 -7.4865232409e-11)
(-88.3220000018 0 -3.45493979361e-10)
(-88.3220000006 0 8.47615164964e-11)
(-88.3219999996 0 1.29784201864e-10)
(-88.3220000002 0 1.04733475761e-10)
(-88.321999999 0 -9.65241980739e-11)
(-88.3220000002 0 -7.00753378779e-12)
(-88.3220000001 0 -5.14756147519e-11)
(-88.3219999999 0 6.30469419113e-12)
(-88.3220000002 0 4.0684757729e-11)
(-88.3219999997 0 3.54275048092e-11)
(-88.322 0 -1.57702800566e-11)
(-88.322 0 9.18831330409e-12)
(-88.322 0 7.04349388603e-12)
(-88.322 0 6.50045611132e-12)
(-88.322 0 1.30896937727e-11)
(-88.3220000001 0 -5.78310400744e-11)
(-88.3219999999 0 2.50817076925e-10)
(-88.3220000001 0 -1.68620599367e-10)
(-88.3220000001 0 -6.98047997899e-11)
(-88.3219999996 0 -1.20278453336e-11)
(-88.3220000002 0 5.02661156369e-11)
(-88.322 0 2.44467098668e-10)
(-88.3219999999 0 -4.08276899923e-10)
(-88.3220000011 0 -4.19192986947e-10)
(-88.3220000002 0 2.93251907572e-10)
(-88.3219999994 0 2.9561701129e-10)
(-88.3220000006 0 3.71209972741e-11)
(-88.3219999985 0 3.635341007e-10)
(-88.3219999981 0 -7.86861390692e-11)
(-88.3220000002 0 4.01490694231e-10)
(-88.3220000006 0 -2.65423057622e-10)
(-88.3220000008 0 -7.5286012267e-11)
(-88.3220000008 0 -2.28839121838e-10)
(-88.3220000003 0 4.28013546085e-10)
(-88.3219999992 0 2.2010220797e-11)
(-88.3219999986 0 -2.16800004424e-10)
(-88.3220000012 0 3.81926864507e-11)
(-88.3220000003 0 2.24429477091e-11)
(-88.3219999989 0 4.17560163269e-11)
(-88.3220000017 0 -7.06492219698e-11)
(-88.3220000007 0 5.46390586591e-11)
(-88.3219999991 0 -1.42450858253e-10)
(-88.3220000001 0 -1.622910911e-10)
(-88.3219999999 0 3.9823841721e-10)
(-88.3219999998 0 -3.74302880024e-10)
(-88.322000001 0 -3.54097409714e-10)
(-88.3219999993 0 -6.12702230781e-11)
(-88.3219999985 0 -1.17731909991e-10)
(-88.322 0 -5.75918614036e-12)
(-88.3220000007 0 -1.94806153051e-10)
(-88.3220000018 0 -1.00072906904e-10)
(-88.3220000001 0 2.44395642077e-11)
(-88.3219999984 0 -1.35930447226e-12)
(-88.3219999987 0 1.87322784233e-12)
(-88.3220000011 0 -2.19747509337e-11)
(-88.3220000017 0 -3.20209992126e-13)
(-88.322 0 2.59689495339e-11)
(-88.321999999 0 -6.98908685811e-11)
(-88.3219999991 0 4.25468919589e-11)
(-88.3220000006 0 -2.73415582959e-10)
(-88.3219999997 0 -3.10344573456e-10)
(-88.3219999991 0 -5.19308495833e-10)
(-88.3220000007 0 2.40243538704e-10)
(-88.3220000016 0 -4.03310554682e-10)
(-88.3220000001 0 -3.54856423933e-10)
(-88.321999999 0 7.41523857053e-10)
(-88.3219999999 0 1.84506027992e-10)
(-88.3220000004 0 -1.22270003007e-10)
(-88.3220000004 0 -3.86036519271e-10)
(-88.3219999997 0 -1.37587841838e-10)
(-88.3219999999 0 5.76649417349e-10)
(-88.322 0 -1.28602959197e-10)
(-88.322 0 -9.81792994026e-11)
(-88.322 0 3.58298488219e-11)
(-88.322 0 6.89191981559e-11)
(-88.322 0 -1.51167279577e-10)
(-88.322 0 4.95790217095e-11)
(-88.322 0 2.98290650165e-11)
(-88.3220000001 0 6.23814634873e-12)
(-88.3219999997 0 -7.79187358114e-12)
(-88.322 0 -2.29739810317e-11)
(-88.3220000003 0 2.51738487541e-11)
(-88.322 0 -2.63464080537e-11)
(-88.3219999999 0 9.16536220668e-11)
(-88.3220000001 0 -3.40794043227e-11)
(-88.3220000002 0 6.55291546681e-11)
(-88.3219999999 0 -7.1421379754e-11)
(-88.322 0 4.55021631917e-11)
(-88.3220000001 0 3.23057887979e-10)
(-88.3219999999 0 4.42914273863e-11)
(-88.3219999999 0 7.97829735351e-11)
(-88.3220000001 0 4.56937934287e-10)
(-88.3219999999 0 -4.72259390129e-10)
(-88.3219999998 0 -4.02142494629e-10)
(-88.3219999998 0 7.16687110039e-11)
(-88.3220000001 0 2.20211301149e-10)
(-88.3220000004 0 -9.45296569843e-11)
(-88.322 0 7.91141399651e-11)
(-88.3220000004 0 1.75901175957e-10)
(-88.3219999999 0 -3.29940593269e-10)
(-88.3219999999 0 -5.81621882153e-10)
(-88.322 0 2.00640697714e-10)
(-88.3220000001 0 -4.28757048971e-10)
(-88.3219999999 0 -3.48196991872e-10)
(-88.3220000001 0 3.78536775194e-10)
(-88.3220000004 0 -1.45700478878e-11)
(-88.3219999987 0 -1.12615432226e-10)
(-88.3220000007 0 6.01381859775e-11)
(-88.3220000018 0 -1.4312973778e-10)
(-88.3219999993 0 -1.0388598646e-10)
(-88.3219999993 0 3.31281611506e-10)
(-88.3219999997 0 -4.71249534071e-10)
(-88.3219999999 0 -3.47031603741e-10)
(-88.3219999999 0 -4.51709729435e-10)
(-88.3219999999 0 -1.95090248441e-11)
(-88.3220000001 0 4.06771672641e-10)
(-88.322 0 2.90280405798e-11)
(-88.322 0 -3.61681317255e-10)
(-88.3219999999 0 -6.24920693002e-10)
(-88.3220000003 0 1.67762735433e-10)
(-88.322 0 2.05653703347e-10)
(-88.3219999998 0 1.91833173046e-10)
(-88.3220000002 0 -2.66194950718e-10)
(-88.3219999999 0 -2.67899095867e-10)
(-88.3220000001 0 4.44586889657e-11)
(-88.322 0 -4.46110205855e-10)
(-88.322 0 -4.06090077813e-10)
(-88.3220000002 0 -1.02934373043e-10)
(-88.3219999995 0 3.94180354732e-10)
(-88.3219999997 0 -6.61508526642e-11)
(-88.3220000013 0 -7.32886059349e-11)
(-88.3220000014 0 -1.01726843712e-10)
(-88.3219999991 0 -4.39181187365e-11)
(-88.3219999982 0 1.90581452938e-10)
(-88.322 0 -3.45389970512e-11)
(-88.3220000012 0 5.86256557006e-11)
(-88.322 0 -2.77083385291e-11)
(-88.3219999993 0 -1.59740597177e-11)
(-88.3220000004 0 3.2999190986e-11)
(-88.322 0 -1.14200477097e-12)
(-88.3219999996 0 -1.0255533815e-11)
(-88.3220000001 0 -3.21231192938e-11)
(-88.322 0 -2.34285821146e-11)
(-88.3220000001 0 3.89282834341e-11)
(-88.3219999999 0 -1.62911410888e-10)
(-88.3220000001 0 3.51159483579e-11)
(-88.322 0 8.82301729718e-11)
(-88.3219999996 0 -1.28727287768e-10)
(-88.3220000001 0 -1.2491372287e-10)
(-88.322 0 8.01932529556e-11)
(-88.3219999999 0 5.13970838735e-10)
(-88.3220000004 0 5.21491921584e-10)
(-88.3220000002 0 -2.9225017417e-10)
(-88.3219999999 0 -3.10940408783e-10)
(-88.3219999999 0 -1.80065359435e-10)
(-88.3219999997 0 -4.2689779847e-10)
(-88.3219999998 0 1.49522861607e-10)
(-88.3219999992 0 -3.93895690539e-10)
(-88.3219999994 0 3.44235629039e-10)
(-88.3220000012 0 -1.42980705696e-10)
(-88.3220000004 0 1.22777570355e-10)
(-88.3220000002 0 -2.48451160556e-10)
(-88.3220000001 0 -6.28758800228e-12)
(-88.322 0 -3.99079068627e-11)
(-88.322 0 -7.78599621922e-12)
(-88.322 0 -6.66037283269e-11)
(-88.322 0 7.3071413596e-11)
(-88.322 0 3.35827613114e-11)
(-88.322 0 -8.23285154268e-11)
(-88.3220000001 0 1.36493617191e-10)
(-88.322 0 1.49667799617e-10)
(-88.322 0 -4.49398417758e-10)
(-88.322 0 5.24244621053e-10)
(-88.322 0 5.31993606791e-10)
(-88.322 0 9.03485667499e-11)
(-88.322 0 1.18068445937e-10)
(-88.322 0 -1.85492930987e-11)
(-88.322 0 7.1170017192e-11)
(-88.322 0 -1.37068045434e-11)
(-88.322 0 5.49793315873e-12)
(-88.322 0 3.54212387408e-12)
(-88.322 0 -2.0866785782e-11)
(-88.322 0 1.6181870691e-11)
(-88.322 0 -3.80736243766e-12)
(-88.322 0 1.1621701539e-10)
(-88.322 0 -4.45787841088e-11)
(-88.322 0 -4.13134141445e-11)
(-88.322 0 5.55864338491e-11)
(-88.322 0 -2.55468126378e-11)
(-88.322 0 2.85453319089e-11)
(-88.322 0 -1.51936384542e-10)
(-88.322 0 3.99746859906e-11)
(-88.322 0 -6.03138775281e-11)
(-88.322 0 -5.75142990831e-11)
(-88.322 0 2.12221828067e-10)
(-88.3220000002 0 -1.10439162776e-10)
(-88.3219999999 0 1.37661894886e-10)
(-88.3219999997 0 -1.6079089649e-10)
(-88.3220000001 0 -7.02691682819e-10)
(-88.322 0 1.4345818212e-10)
(-88.322 0 2.81816532727e-10)
(-88.322 0 -1.14612536042e-11)
(-88.322 0 -6.86966250886e-11)
(-88.322 0 1.57773148059e-10)
(-88.322 0 -7.32186307762e-11)
(-88.322 0 -2.62203415477e-11)
(-88.322 0 -1.86664910567e-11)
(-88.322 0 -4.94605718174e-11)
(-88.322 0 1.14518890628e-10)
(-88.3219999999 0 -1.14032323686e-11)
(-88.3220000002 0 1.66362720006e-10)
(-88.3220000003 0 -4.30601374686e-11)
(-88.3219999996 0 -6.05343579227e-11)
(-88.321999999 0 -1.3414990296e-10)
(-88.321999999 0 6.75156792898e-11)
(-88.3220000017 0 1.14033958774e-10)
(-88.3220000019 0 -2.42408853896e-10)
(-88.3219999995 0 -9.98715481194e-11)
(-88.3220000001 0 -7.16016177869e-11)
(-88.3219999994 0 -9.13232014498e-11)
(-88.3219999998 0 3.80413175168e-11)
(-88.3219999994 0 5.82846072413e-11)
(-88.3219999993 0 -9.62255334375e-10)
(-88.3220000005 0 -7.60084145531e-10)
(-88.322 0 -2.2659987487e-10)
(-88.3219999997 0 9.96407380062e-11)
(-88.322 0 1.16459022086e-10)
(-88.3219999999 0 -1.37633058908e-10)
(-88.322 0 -4.38418295227e-11)
(-88.3219999998 0 5.50278847957e-11)
(-88.3219999999 0 4.95912946145e-11)
(-88.3220000002 0 -1.04609689459e-10)
(-88.322 0 -1.16380197574e-10)
(-88.322 0 -3.49741502029e-11)
(-88.322 0 -5.12422452241e-11)
(-88.322 0 -2.64952721786e-12)
(-88.3219999999 0 -1.86030351761e-11)
(-88.3220000001 0 -4.9780595031e-12)
(-88.3220000001 0 -2.14604437501e-11)
(-88.3219999999 0 -2.73991160103e-11)
(-88.322 0 -3.44927397607e-11)
(-88.322 0 -2.77118849697e-11)
(-88.322 0 -7.76288121771e-12)
(-88.322 0 4.20904173506e-11)
(-88.322 0 -1.60641000237e-10)
(-88.3219999999 0 -6.47696132359e-11)
(-88.3219999999 0 4.32473459274e-10)
(-88.322 0 3.12219326862e-10)
(-88.3220000001 0 -4.37409197198e-10)
(-88.3220000001 0 -3.39701853197e-10)
(-88.322 0 -1.18966310219e-10)
(-88.3219999999 0 5.69725189818e-11)
(-88.3220000001 0 -1.43573493097e-10)
(-88.3220000002 0 1.05122121988e-10)
(-88.322 0 -1.41368566263e-10)
(-88.3220000001 0 -3.93770429957e-10)
(-88.3219999997 0 -2.94759325573e-10)
(-88.3219999991 0 1.89390186613e-10)
(-88.3220000013 0 -3.93140604597e-10)
(-88.3220000015 0 -4.37794988017e-10)
(-88.3219999992 0 -3.99009252864e-10)
(-88.3219999999 0 4.23231207893e-10)
(-88.3219999995 0 3.286431588e-10)
(-88.3219999992 0 -3.5776979598e-10)
(-88.3220000002 0 -2.4377688088e-10)
(-88.322 0 4.81966206313e-10)
(-88.322 0 1.01059460618e-10)
(-88.322 0 -3.1078399758e-10)
(-88.322 0 -5.12232044327e-10)
(-88.322 0 2.39227895333e-10)
(-88.3220000001 0 -2.3358517161e-10)
(-88.3219999999 0 -6.23576460666e-11)
(-88.3219999998 0 -4.93244507338e-10)
(-88.322 0 4.22420600916e-10)
(-88.3220000001 0 -1.00623649836e-10)
(-88.322 0 5.61224239083e-11)
(-88.3220000005 0 2.19988209054e-10)
(-88.3219999998 0 -3.58100076772e-10)
(-88.3219999994 0 -8.49836230333e-10)
(-88.322000001 0 -9.98599760058e-10)
(-88.3220000007 0 -3.58234013571e-10)
(-88.3219999996 0 9.04905536972e-10)
(-88.3219999998 0 5.33807947911e-10)
(-88.3219999994 0 -7.20896536463e-11)
(-88.3219999995 0 -6.15323754843e-10)
(-88.3220000012 0 6.60749579044e-10)
(-88.322000001 0 -2.39612036668e-11)
(-88.3219999996 0 -1.64003304236e-10)
(-88.3219999995 0 -1.73696496049e-11)
(-88.322 0 1.03592473058e-10)
(-88.3220000006 0 5.85443183824e-11)
(-88.3220000003 0 1.8984432042e-10)
(-88.3219999996 0 -2.03181220672e-10)
(-88.3219999999 0 1.48771283717e-10)
(-88.3220000004 0 -2.38692620678e-10)
(-88.3220000003 0 1.76449584957e-10)
(-88.3219999999 0 2.12652620668e-10)
(-88.322 0 -1.87385281662e-10)
(-88.3219999999 0 -3.86910238213e-10)
(-88.322 0 -1.42723582356e-10)
(-88.322 0 -4.32598259826e-10)
(-88.322 0 -4.30040895651e-10)
(-88.322 0 -1.74431368292e-10)
(-88.322 0 7.52629538166e-11)
(-88.322 0 3.13702858941e-11)
(-88.322 0 8.4778323371e-11)
(-88.3219999999 0 -3.07723721973e-10)
(-88.3220000003 0 -6.39987215187e-10)
(-88.3220000002 0 2.94886125268e-10)
(-88.3219999988 0 3.02586248319e-10)
(-88.3219999992 0 7.07678067471e-10)
(-88.3220000018 0 -4.20315793797e-10)
(-88.3220000013 0 -3.73598452105e-10)
(-88.3219999994 0 2.74963070941e-10)
(-88.3219999993 0 2.61867925774e-10)
(-88.322 0 2.62057480247e-10)
(-88.322 0 1.03095061993e-10)
(-88.3220000001 0 2.66504971915e-10)
(-88.3220000009 0 9.94101564827e-11)
(-88.3220000002 0 2.04236067973e-11)
(-88.3219999988 0 8.65113818427e-11)
(-88.3220000002 0 -1.18476569641e-10)
(-88.3220000012 0 -3.73312655854e-10)
(-88.3220000003 0 4.8786603258e-10)
(-88.3219999981 0 6.97767854312e-10)
(-88.3219999982 0 4.28081682479e-10)
(-88.3220000016 0 6.80848815531e-10)
(-88.3220000011 0 -4.22949418772e-10)
(-88.3219999984 0 -2.14428719792e-11)
(-88.3219999993 0 1.21325480401e-11)
(-88.3220000016 0 -5.0132680081e-11)
(-88.3220000012 0 5.02781642195e-11)
(-88.3219999989 0 -7.49296190774e-11)
(-88.3219999994 0 3.37649447583e-11)
(-88.3220000005 0 -1.02599087056e-10)
(-88.3220000005 0 -2.58399678331e-10)
(-88.3219999989 0 2.10931850627e-10)
(-88.3219999991 0 2.90206093236e-10)
(-88.322000001 0 3.73861465886e-10)
(-88.3219999996 0 -3.20205594597e-10)
(-88.3220000004 0 -3.29601076676e-10)
(-88.322000001 0 5.82953135023e-10)
(-88.3220000002 0 6.94128938297e-11)
(-88.3220000008 0 1.02452740066e-10)
(-88.3219999982 0 3.35334369284e-10)
(-88.3219999978 0 5.11144246083e-10)
(-88.322000002 0 5.78995962429e-10)
(-88.3220000016 0 -2.0590608637e-10)
(-88.3219999983 0 -3.12064767636e-10)
(-88.3219999982 0 -1.83841070195e-10)
(-88.3220000009 0 4.12848993791e-10)
(-88.3220000005 0 3.53497573564e-10)
(-88.3219999994 0 2.70408366437e-10)
(-88.322 0 -1.56417034473e-10)
(-88.3219999999 0 -1.94776763419e-10)
(-88.3220000003 0 1.11852328451e-10)
(-88.322 0 -2.3678913019e-11)
(-88.3219999999 0 -4.78610142035e-11)
(-88.3219999999 0 -8.92533621977e-11)
(-88.3219999993 0 9.44997460158e-11)
(-88.3220000007 0 7.80756521161e-11)
(-88.3220000012 0 3.07542126149e-11)
(-88.3219999999 0 -2.7553293774e-11)
(-88.322 0 -2.43801589004e-10)
(-88.3220000004 0 -3.29542712558e-11)
(-88.3219999997 0 -7.01055169676e-11)
(-88.3219999991 0 -8.53157969319e-11)
(-88.3219999995 0 6.06241383853e-11)
(-88.322 0 -8.28675624442e-11)
(-88.3220000007 0 -1.13074873179e-11)
(-88.3220000015 0 4.46165202499e-12)
(-88.3219999989 0 -6.45492620332e-11)
(-88.3219999981 0 1.78870945629e-10)
(-88.321999999 0 1.03461127678e-11)
(-88.3220000014 0 -3.1377199289e-10)
(-88.3220000022 0 -2.1429846766e-10)
(-88.3219999988 0 3.12163818527e-10)
(-88.3219999988 0 4.23167404143e-10)
(-88.322 0 1.24250900089e-10)
(-88.3220000001 0 -4.37965751909e-11)
(-88.3220000001 0 1.47894388976e-10)
(-88.3220000002 0 -7.68779753793e-11)
(-88.3220000004 0 1.51532541502e-10)
(-88.3220000001 0 3.94259269199e-10)
(-88.322 0 2.95322811132e-10)
(-88.3219999999 0 -1.90563083995e-10)
(-88.3220000002 0 4.7460049934e-10)
(-88.3219999995 0 2.87492335548e-10)
(-88.3219999992 0 5.73071540292e-10)
(-88.322 0 -4.74348617373e-10)
(-88.3220000011 0 -3.2407803502e-10)
(-88.3220000005 0 4.92371345533e-10)
(-88.3219999994 0 2.23796471135e-10)
(-88.322 0 -4.81539118985e-10)
(-88.322 0 -9.40966253429e-11)
(-88.3220000001 0 2.98078318584e-10)
(-88.322 0 5.30178952804e-10)
(-88.322 0 -3.62587555428e-10)
(-88.3220000007 0 2.16808933568e-10)
(-88.3219999993 0 3.4123150304e-11)
(-88.3219999986 0 4.9711909303e-10)
(-88.3219999997 0 -4.44475284047e-10)
(-88.3220000014 0 2.32238143618e-11)
(-88.3220000015 0 1.18597212605e-10)
(-88.3219999986 0 -4.59129883445e-10)
(-88.321999999 0 1.05723778125e-10)
(-88.3220000003 0 6.89266779182e-10)
(-88.3220000005 0 6.54504394013e-10)
(-88.3219999999 0 3.8540556562e-10)
(-88.3219999992 0 -4.07857425633e-10)
(-88.3220000012 0 -5.51517508149e-10)
(-88.322000001 0 4.68268235127e-10)
(-88.3219999995 0 4.23091895634e-10)
(-88.3219999998 0 -3.37207322652e-10)
(-88.322 0 -4.68878322457e-10)
(-88.3219999999 0 1.16838562833e-10)
(-88.322 0 -1.60467087898e-10)
(-88.322 0 -2.94365123529e-11)
(-88.322 0 9.47565153707e-11)
(-88.322 0 -1.61225439529e-10)
(-88.322 0 1.76670341615e-10)
(-88.322 0 -8.017376494e-11)
(-88.322 0 1.48447247257e-10)
(-88.322 0 -1.88467577039e-10)
(-88.322 0 -1.1044102774e-10)
(-88.3220000001 0 -1.71183549398e-10)
(-88.3220000004 0 1.30261211202e-11)
(-88.322 0 3.04928521861e-10)
(-88.3219999996 0 1.61664273301e-10)
(-88.3220000001 0 -1.15977454504e-10)
(-88.3219999998 0 -2.44626596374e-10)
(-88.322 0 1.05935388184e-10)
(-88.3220000001 0 1.45600510561e-10)
(-88.3219999998 0 -1.76848790713e-10)
(-88.322 0 3.36306500117e-10)
(-88.322 0 6.33707918554e-10)
(-88.3220000001 0 -2.78819159345e-10)
(-88.3219999998 0 -3.13129992392e-10)
(-88.3219999998 0 -7.26021681884e-10)
(-88.3220000005 0 3.48043810198e-10)
(-88.322 0 3.44454153858e-10)
(-88.3219999998 0 -2.93652579986e-10)
(-88.3220000001 0 -2.64026218091e-10)
(-88.322 0 -2.89834944728e-10)
(-88.322 0 -1.85126085818e-10)
(-88.322 0 -1.97658359208e-10)
(-88.322 0 -9.73318660879e-11)
(-88.322 0 9.02597344826e-11)
(-88.322 0 1.07757262174e-10)
(-88.3219999998 0 -1.37981534662e-10)
(-88.3220000002 0 2.92975562693e-10)
(-88.3220000002 0 -2.88068335271e-10)
(-88.3219999997 0 -5.7884557754e-10)
(-88.322 0 -4.71654300465e-10)
(-88.3219999998 0 -9.22205913995e-11)
(-88.3220000001 0 -9.53118319781e-11)
(-88.3220000004 0 -4.24616682632e-10)
(-88.3219999999 0 2.27587466499e-10)
(-88.322 0 3.11286630868e-10)
(-88.322 0 -3.5356537795e-10)
(-88.3220000002 0 3.61761372435e-11)
(-88.3220000001 0 -4.73704505667e-10)
(-88.3219999998 0 -4.19438796116e-10)
(-88.322 0 9.0965494882e-11)
(-88.3219999999 0 -6.86063290699e-10)
(-88.322 0 -4.04217699837e-10)
(-88.3219999999 0 -4.1697452671e-10)
(-88.3220000006 0 2.13441946179e-10)
(-88.3220000005 0 2.89735220117e-10)
(-88.3219999988 0 -4.85179785825e-10)
(-88.3219999992 0 -8.19108919855e-11)
(-88.3220000013 0 -4.32053614909e-10)
(-88.3220000003 0 2.55738039205e-10)
(-88.3219999997 0 -4.2373156841e-10)
(-88.3220000003 0 -8.04254651243e-10)
(-88.3219999998 0 -2.08634069059e-10)
(-88.3219999999 0 6.60307496171e-11)
(-88.322 0 2.70404490526e-10)
(-88.322 0 3.31748879e-11)
(-88.322 0 -7.28669144845e-13)