/*--------------------------------*- C++ -*----------------------------------*\
  =========                 |
  \\      /  F ield         | OpenFOAM: The Open Source CFD Toolbox
   \\    /   O peration     | Website:  https://openfoam.org
    \\  /    A nd           | Version:  6
     \\/     M anipulation  |
\*---------------------------------------------------------------------------*/
FoamFile
{
    version     2.0;
    format      ascii;
    class       volScalarField;
    location    "4.78e-05";
    object      p;
}
// * * * * * * * * * * * * * * * * * * * * * * * * * * * * * * * * * * * * * //

dimensions      [1 -1 -2 0 0 0 0];

internalField   nonuniform List<scalar> 
8192
(
6000000.00062
5999999.99938
6000000.00045
6000000.00091
6000000.0046
5999999.9978
6000000.00158
5999999.99957
6000000.00026
5999999.99981
6000000.00022
5999999.99984
6000000.0006
6000000.00146
6000000.00078
6000000.00058
6000000.00053
5999999.99826
5999999.99903
6000000.00062
5999999.99858
5999999.99725
6000000.00175
5999999.99985
5999999.99955
6000000.00013
5999999.99818
5999999.99919
5999999.99823
5999999.99909
6000000.00023
6000000.00056
5999999.99653
5999999.99379
6000000.00771
6000000.00758
5999999.99906
6000000.00446
5999999.99948
5999999.99718
6000000.00356
5999999.99769
6000000.00023
5999999.99988
6000000.00037
6000000.00038
6000000.00006
5999999.99984
5999999.99922
6000000.0016
5999999.99706
6000000.00058
6000000.00306
5999999.99597
5999999.99658
6000000.00116
5999999.99989
6000000.00299
5999999.99999
6000000.00569
5999999.99664
5999999.99742
5999999.99704
6000000.00239
6000000.00067
6000000.00211
5999999.99987
6000000.00387
5999999.9957
6000000.00317
5999999.99868
5999999.99678
6000000.00266
6000000.00275
6000000.00683
5999999.99671
5999999.99443
6000000.00645
6000000.00249
5999999.99534
5999999.9944
5999999.99176
6000000.00315
6000000.00585
6000000.00008
5999999.99913
6000000.00641
6000000.00473
5999999.99761
5999999.99716
5999999.99851
5999999.99834
5999999.99709
6000000.00428
5999999.99687
6000000.00219
6000000.0016
5999999.99946
6000000.00377
5999999.99825
5999999.99967
5999999.99988
5999999.99971
6000000.00019
5999999.99906
6000000.0003
6000000.00012
6000000
5999999.99998
5999999.99998
6000000.00007
6000000.00025
5999999.99941
6000000.00064
5999999.99974
6000000.0012
6000000.00011
5999999.99867
6000000.0008
5999999.99911
5999999.99928
5999999.99887
6000000.0001
5999999.99896
6000000.00019
5999999.9995
6000000.00031
6000000.00032
6000000.006
6000000.00051
5999999.99705
6000000.00053
5999999.99869
5999999.99952
5999999.99997
5999999.99971
6000000.00067
6000000.00092
5999999.99853
6000000.00371
6000000.00077
6000000.00322
6000000.00434
5999999.9966
5999999.99678
5999999.9981
6000000.00211
6000000.00232
5999999.99988
5999999.99986
5999999.99884
6000000.00069
5999999.99479
6000000.00065
5999999.99694
5999999.99666
6000000.00164
6000000.00101
5999999.99841
5999999.99914
5999999.99978
5999999.99961
6000000.00018
6000000.00049
5999999.99963
6000000.00226
6000000.00019
6000000.00117
5999999.99788
6000000.0006
5999999.99743
6000000.00307
6000000.00203
6000000.00273
6000000.00195
6000000.0041
6000000.00231
6000000.00048
5999999.99427
6000000.00287
6000000.00159
5999999.99795
6000000.00074
5999999.99799
6000000.00279
6000000.00096
6000000.00208
5999999.99329
5999999.9924
6000000.00184
6000000.00631
6000000.00418
5999999.99927
5999999.99943
6000000.00105
6000000.00029
5999999.9999
6000000.00001
5999999.99997
6000000.00001
6000000.00015
6000000.00004
6000000.00002
5999999.99755
5999999.99757
6000000.0029
5999999.99924
5999999.99994
6000000.00004
5999999.99998
6000000.00011
6000000.00026
6000000.00036
5999999.99944
5999999.99994
6000000.00003
5999999.9998
6000000.00008
6000000.00003
5999999.99569
6000000.00084
6000000.00168
5999999.99697
6000000.00093
6000000.00694
5999999.99409
5999999.99685
6000000.00533
6000000.00862
5999999.99179
5999999.99504
6000000.0015
6000000.00395
5999999.99564
6000000.00317
6000000.0003
6000000.00481
5999999.99824
6000000.00716
6000000.00363
5999999.9913
6000000.0004
6000000.0064
5999999.99827
6000000.00541
5999999.99388
5999999.99847
6000000.00154
6000000.00314
6000000.00389
6000000.00055
6000000.00229
6000000.00083
5999999.99893
5999999.99936
5999999.99922
5999999.99989
5999999.99881
6000000.00058
5999999.99799
6000000.0022
5999999.99837
5999999.99966
5999999.99921
5999999.99969
5999999.99992
5999999.99979
6000000.00132
6000000.00164
5999999.99662
6000000.00035
6000000.00145
5999999.99994
6000000.00282
5999999.99512
5999999.99716
6000000.00513
6000000.00097
5999999.99626
5999999.99493
5999999.99953
5999999.9943
5999999.99832
5999999.99463
6000000.00167
6000000.00531
5999999.99612
6000000.00058
5999999.99912
6000000.00135
5999999.9995
5999999.99925
6000000.00168
5999999.99766
6000000.00194
6000000.00014
6000000.00002
6000000.00016
6000000.00001
6000000.00001
6000000.00002
6000000.00031
5999999.99887
6000000.00143
5999999.99695
5999999.99989
5999999.99843
6000000.00173
6000000.00592
5999999.99848
5999999.99344
6000000.00275
6000000.00671
5999999.99777
6000000.00351
5999999.99826
6000000.00683
5999999.99625
5999999.99674
5999999.99635
6000000.00194
6000000.00226
5999999.99532
6000000.00181
6000000.00101
6000000.00006
6000000.00094
5999999.99859
6000000.00039
6000000.0007
5999999.99806
6000000.00258
6000000.00227
6000000.00097
6000000.00022
5999999.99967
5999999.99708
5999999.99749
6000000.00053
6000000.00094
5999999.99975
5999999.99841
5999999.99774
6000000.00081
5999999.99653
6000000.00078
5999999.99654
5999999.99409
5999999.99665
6000000.00351
5999999.99744
5999999.99629
6000000.00731
5999999.99874
6000000.00297
6000000.00003
5999999.99664
6000000.00394
5999999.99557
6000000.00363
5999999.99981
5999999.99944
6000000.00098
5999999.99973
6000000.00068
6000000.00009
6000000.00072
6000000.00163
5999999.99812
6000000.00301
6000000.0012
5999999.9974
6000000.0019
5999999.99993
5999999.99989
6000000.00393
5999999.99805
6000000.00375
6000000.00296
5999999.99381
5999999.99242
5999999.99554
5999999.99877
6000000.0011
6000000.00206
6000000.0029
5999999.99428
5999999.99159
6000000.00158
5999999.99601
5999999.9987
6000000.00521
5999999.99832
5999999.99881
6000000.0021
5999999.99664
5999999.99801
6000000.00654
5999999.99601
5999999.99916
5999999.994
6000000.00184
6000000.00515
5999999.99973
5999999.99804
5999999.99131
6000000.00404
5999999.9992
6000000.00445
5999999.99868
5999999.99678
6000000.00295
5999999.99465
5999999.99346
6000000.0003
6000000.0029
5999999.99815
5999999.99799
5999999.99762
6000000.00183
6000000.00192
5999999.99767
6000000.00194
5999999.99854
5999999.99931
6000000.00108
5999999.99919
5999999.99975
5999999.99999
6000000.00046
6000000.00121
5999999.99698
6000000.00137
6000000.00037
5999999.99953
5999999.99732
6000000.00164
6000000.0005
5999999.99886
6000000.00142
6000000.00127
5999999.99784
5999999.99939
6000000.00032
5999999.99946
5999999.99686
5999999.99697
5999999.99876
5999999.99569
6000000.0025
6000000.00203
6000000.00036
6000000.00047
5999999.9992
6000000.00291
5999999.99803
6000000.00298
6000000.00208
5999999.99542
6000000.0046
6000000.00136
6000000.00052
6000000.00075
5999999.99833
6000000.00211
6000000
5999999.99915
6000000.00111
6000000.00016
5999999.99949
5999999.99744
6000000.00407
5999999.99687
5999999.99952
6000000.00167
5999999.997
6000000.00354
5999999.9963
6000000.00246
5999999.99899
5999999.99936
5999999.99728
6000000.00264
6000000.00634
5999999.99808
5999999.99797
6000000.00094
6000000.00262
5999999.99834
5999999.99743
6000000.0056
5999999.99825
5999999.9998
5999999.9997
6000000.00072
6000000.00308
5999999.99752
6000000.00426
5999999.99843
5999999.9986
6000000.00173
6000000.00024
5999999.99986
6000000.00323
6000000.00059
6000000.00274
5999999.99887
5999999.99899
5999999.99946
5999999.99732
5999999.99477
6000000.00261
6000000.00113
5999999.9986
5999999.9996
5999999.99887
6000000.00008
5999999.99839
6000000.00081
5999999.99915
6000000.00024
5999999.99966
5999999.99995
6000000.00013
5999999.99866
6000000.00075
6000000.00013
5999999.99988
5999999.99989
5999999.9998
6000000.00013
6000000.00018
5999999.99982
5999999.99989
5999999.99982
6000000.00002
5999999.99981
5999999.99992
5999999.99973
5999999.99956
6000000.00001
6000000
5999999.99981
5999999.99998
6000000.00005
5999999.9999
5999999.99864
6000000.00261
5999999.99823
5999999.99929
5999999.99917
5999999.99936
5999999.99999
5999999.99993
6000000.00001
5999999.99987
6000000.00122
6000000.00049
6000000.00005
6000000.00014
5999999.99944
5999999.99764
6000000.00271
6000000.00299
5999999.99869
5999999.99366
5999999.99286
6000000.00162
6000000.00583
6000000.00217
6000000.00413
5999999.99668
6000000.00454
5999999.99361
6000000.00097
5999999.99633
6000000.0004
5999999.99995
6000000.00283
5999999.999
6000000.00178
5999999.99761
6000000.00162
5999999.99979
6000000.00002
6000000.00026
6000000.00029
6000000.00002
5999999.99972
6000000.00266
5999999.99973
6000000.00001
6000000.00002
5999999.99992
5999999.99989
6000000.00003
6000000.00044
5999999.99909
5999999.99899
5999999.99905
5999999.99912
5999999.99981
5999999.9986
5999999.99702
6000000.00165
6000000.00077
6000000.00081
6000000.00211
5999999.99759
5999999.99724
6000000.00763
6000000.00352
6000000.00125
6000000.00326
5999999.99731
5999999.99898
6000000.00085
5999999.99943
6000000.0007
6000000.0001
6000000.00055
6000000.00039
6000000.00227
5999999.99943
5999999.99817
6000000.00036
5999999.99962
5999999.99993
6000000.00511
5999999.99954
5999999.99773
6000000.00312
6000000.00168
6000000.00054
6000000.00097
5999999.99681
5999999.99791
6000000.0048
6000000.00512
6000000.0027
5999999.99717
5999999.9977
6000000.00273
5999999.99983
5999999.99822
5999999.99716
6000000.00368
6000000.00268
5999999.99989
6000000.00164
5999999.99818
6000000.00123
5999999.99953
6000000.00068
6000000.00071
6000000.00051
6000000.00099
5999999.99941
5999999.99903
6000000.00146
6000000.00126
5999999.99366
5999999.99473
6000000.00356
6000000.00117
5999999.99945
5999999.99847
6000000.0029
5999999.99729
6000000.00086
6000000.00149
6000000.00274
5999999.99306
6000000.00289
6000000.00171
6000000.00506
5999999.99537
5999999.99763
6000000.00144
6000000.00074
5999999.99461
5999999.99816
6000000.00431
6000000.00578
5999999.99909
6000000.00179
6000000.00127
6000000.00441
5999999.99719
6000000.00133
6000000.00172
5999999.99579
6000000.0033
6000000.00293
6000000.00563
6000000.0088
5999999.99523
5999999.99789
6000000.00398
6000000.00701
5999999.99435
5999999.99455
6000000.00247
5999999.99777
6000000
6000000.00066
5999999.99645
6000000.00211
5999999.99723
6000000.00079
5999999.99642
5999999.99455
6000000.00354
6000000.00336
5999999.99869
6000000.00336
6000000.00145
6000000.00028
5999999.99966
5999999.999
5999999.99758
6000000.0039
6000000.00765
5999999.99644
5999999.99866
5999999.99217
6000000.00505
6000000.00648
5999999.99569
5999999.99722
5999999.99588
5999999.99747
5999999.99637
6000000.00071
5999999.99924
6000000.00136
5999999.99916
5999999.99964
6000000.00313
5999999.99462
5999999.9945
5999999.9964
6000000.00649
6000000.00017
5999999.99892
6000000.00095
5999999.99965
6000000.00243
5999999.9992
6000000.00159
6000000.00612
5999999.99618
5999999.99467
5999999.99304
6000000.00276
6000000.00258
5999999.992
5999999.99702
5999999.9967
6000000.00139
5999999.99862
5999999.99355
6000000.00416
6000000.00425
5999999.99995
6000000.0009
5999999.99999
6000000.00042
6000000.0006
6000000.00031
6000000.00001
5999999.99998
5999999.99991
5999999.99988
6000000.00015
6000000.00023
5999999.99871
6000000.00192
6000000.00598
6000000.00006
6000000.00077
6000000.00259
5999999.99924
6000000.00309
6000000.00101
5999999.9998
5999999.99989
5999999.99982
6000000.00153
5999999.99761
5999999.99722
6000000.00114
5999999.99652
6000000.00097
5999999.99887
5999999.99964
5999999.99946
5999999.99994
5999999.99984
6000000.00006
6000000.0002
5999999.99764
6000000.00313
5999999.99868
5999999.99916
5999999.99996
5999999.99752
6000000.00098
6000000.00096
6000000.00007
6000000.00036
5999999.99892
6000000.00356
5999999.99988
6000000.00004
6000000.00054
5999999.99954
6000000.00041
5999999.99794
6000000.0054
6000000.00327
5999999.99544
5999999.99831
6000000.00227
5999999.99802
6000000.00362
5999999.99916
5999999.99997
6000000.00004
5999999.99964
6000000.00019
5999999.99932
6000000.00105
5999999.99726
6000000.0019
6000000.00096
6000000.00089
5999999.99976
6000000.00024
5999999.99696
6000000.00731
6000000.00334
5999999.99415
6000000.00141
6000000.00304
6000000.00442
5999999.99635
5999999.995
6000000.00356
5999999.99874
5999999.99948
6000000.00015
5999999.99992
5999999.99992
5999999.99996
6000000.00002
5999999.99989
5999999.99993
5999999.99988
6000000.0002
5999999.99858
6000000.00213
5999999.99732
5999999.99954
6000000.00129
5999999.99349
6000000.00508
6000000.0055
6000000.00171
5999999.99915
6000000.0034
6000000.00518
5999999.99697
5999999.99577
6000000.00336
5999999.99933
6000000.00338
6000000.00538
6000000.00058
6000000.00597
6000000.00007
5999999.99977
6000000.00092
6000000.00067
5999999.99987
6000000.00001
6000000.00344
5999999.99823
6000000.00088
6000000.00185
6000000.00316
6000000.00261
5999999.99425
6000000.00167
6000000.00059
6000000.00053
5999999.99909
6000000.00545
6000000.00316
5999999.99795
6000000.00275
6000000.00023
5999999.99943
6000000.00067
5999999.99927
6000000.0021
5999999.99331
6000000.00282
6000000.00165
5999999.99991
5999999.99905
6000000.00011
6000000.00095
5999999.99984
6000000.00002
6000000.00002
6000000
6000000.00001
5999999.99989
6000000.00001
5999999.99981
6000000
6000000.00021
5999999.99911
6000000.0013
5999999.99975
5999999.9998
5999999.99973
6000000.00015
5999999.99846
6000000.00038
6000000.00036
6000000.00067
5999999.998
5999999.99814
6000000.00107
6000000.0015
5999999.99883
6000000.00098
5999999.99841
6000000.00278
6000000.00229
6000000.00048
6000000.00033
5999999.99959
5999999.99888
6000000.00228
5999999.99523
6000000.0067
5999999.99674
5999999.99481
6000000.00408
6000000.0046
6000000.00531
6000000.00001
6000000.00019
5999999.99505
5999999.99503
5999999.99557
6000000.00169
5999999.99768
6000000.00525
5999999.99929
5999999.99763
6000000.00071
5999999.99751
6000000.00176
5999999.99802
6000000.00483
5999999.99337
5999999.9958
6000000.00455
5999999.99517
5999999.99681
5999999.99826
6000000.00167
6000000.00152
6000000.00111
6000000.00002
6000000.00106
6000000.0004
6000000.00237
5999999.99625
6000000.00188
6000000.00104
5999999.9998
5999999.99804
5999999.99986
5999999.99987
5999999.99806
5999999.99887
6000000.00123
5999999.99993
6000000.00141
6000000.00196
5999999.99766
5999999.99886
6000000.00427
5999999.99931
5999999.99978
5999999.99991
6000000.00001
6000000.00001
6000000.00014
6000000.00003
5999999.9999
6000000.00057
6000000.00023
5999999.99641
6000000.00068
5999999.9998
5999999.99977
6000000.00001
6000000.00035
5999999.99807
6000000.00326
6000000.00199
5999999.99507
6000000.0067
5999999.99385
5999999.99276
6000000.00287
6000000.00576
5999999.99209
5999999.99762
5999999.99738
5999999.99947
6000000.00186
5999999.99807
6000000.001
5999999.99635
5999999.99714
6000000.00029
5999999.99776
6000000.00294
5999999.99778
6000000.00174
6000000.00307
5999999.99531
5999999.99571
5999999.9946
5999999.99955
6000000.00476
6000000.00193
5999999.99617
5999999.99303
6000000.00422
6000000.0032
5999999.99415
5999999.99885
6000000.00571
6000000.0043
5999999.99761
5999999.99803
6000000.00405
5999999.99971
6000000.00002
6000000.00001
5999999.99995
6000000.00073
6000000.00148
5999999.99849
5999999.99825
5999999.99889
6000000.00013
6000000.00149
5999999.99964
6000000.00055
5999999.99841
5999999.99781
6000000.00143
6000000.00045
6000000.00019
6000000.00002
6000000.00001
5999999.99992
5999999.99996
6000000.00022
5999999.99931
5999999.99869
6000000.00017
6000000.00252
5999999.99792
5999999.99988
5999999.99995
5999999.99497
6000000.00072
6000000.00055
6000000.0039
6000000.00173
5999999.99966
6000000.0012
6000000.00045
5999999.99784
6000000.00318
5999999.99685
6000000.00283
6000000.00104
6000000.00446
5999999.99939
5999999.9997
6000000.00593
6000000.0024
6000000.00326
6000000.00195
5999999.99628
5999999.9989
6000000.00261
5999999.99982
5999999.99707
5999999.99741
6000000.00217
5999999.99725
5999999.99926
5999999.99708
6000000.0003
6000000.00221
5999999.99862
5999999.99868
5999999.99871
5999999.9998
5999999.99982
6000000.00119
6000000.0004
6000000.00052
5999999.99917
6000000.0015
6000000.00155
5999999.99798
6000000.00009
6000000.00011
6000000.00002
6000000.00011
6000000.00008
6000000.00084
6000000.00117
5999999.99825
6000000.00251
6000000.00168
5999999.99652
6000000.00461
5999999.99525
5999999.99837
6000000.00269
6000000.00661
6000000.0031
6000000.00222
6000000.00161
5999999.99267
5999999.99742
5999999.99851
5999999.99922
6000000.00329
6000000.00507
5999999.99334
5999999.99704
5999999.99471
6000000.00593
6000000.00278
6000000.00285
5999999.99882
6000000.0008
6000000.00076
6000000.00175
5999999.99953
5999999.99907
5999999.99975
6000000.00003
5999999.99995
6000000.00079
5999999.9992
6000000.00092
5999999.99963
6000000.00002
5999999.99875
5999999.99624
6000000.00323
6000000.001
5999999.99586
5999999.99509
6000000.00583
5999999.99821
5999999.99568
6000000.00172
6000000.0064
5999999.99524
6000000.00417
5999999.99889
5999999.99824
6000000.00513
5999999.9994
6000000.00015
5999999.99998
6000000
6000000.00007
6000000.00001
6000000.00007
6000000.00002
6000000.00007
6000000.0002
6000000.00025
6000000.00003
6000000.00007
5999999.99952
6000000.00093
6000000.0015
5999999.99545
6000000.00337
6000000.00511
5999999.99863
6000000.00179
6000000.00208
6000000.00215
5999999.99933
6000000.00041
5999999.99367
6000000.00112
5999999.99932
6000000.00141
6000000.00248
5999999.99903
5999999.99874
5999999.9993
5999999.99905
6000000.00022
5999999.99869
6000000.00115
6000000.002
5999999.9984
5999999.99945
5999999.99903
6000000.00103
5999999.99987
6000000
5999999.99997
5999999.9994
6000000.00068
5999999.99923
5999999.99786
6000000.00342
5999999.99672
6000000.00162
5999999.99906
5999999.9994
5999999.99976
5999999.99925
6000000.00198
5999999.99534
6000000.00204
5999999.99939
5999999.99934
6000000.00002
5999999.99944
5999999.99987
5999999.99975
6000000.0009
5999999.99867
5999999.99941
5999999.99995
5999999.99993
5999999.99992
5999999.99998
6000000.00009
5999999.99993
5999999.99977
6000000
5999999.99989
5999999.9999
6000000.00001
5999999.9996
6000000.0014
5999999.99966
6000000.00014
6000000.00016
6000000.00126
5999999.99832
6000000.00168
5999999.9966
6000000.00235
6000000.00148
6000000.002
6000000.00242
5999999.99693
5999999.9994
5999999.99822
6000000.00223
5999999.99918
5999999.99779
6000000.00135
5999999.9985
5999999.99927
5999999.99969
6000000.00024
6000000.00394
6000000.00165
6000000.00332
5999999.99901
6000000.00031
6000000.0023
5999999.99507
6000000.00101
5999999.99657
6000000.00494
6000000.00215
5999999.99451
5999999.99519
5999999.99525
6000000.00562
6000000.00191
6000000.00591
5999999.997
5999999.99768
6000000.00086
5999999.99487
5999999.9947
5999999.99713
5999999.99818
6000000.00195
5999999.99523
5999999.99713
5999999.99311
6000000.00014
5999999.9951
5999999.99795
5999999.99686
5999999.99679
5999999.99569
5999999.99497
6000000.00391
6000000.00114
6000000.00123
5999999.99471
6000000.00201
5999999.99985
6000000
6000000.00086
5999999.99895
6000000.00015
5999999.99627
6000000.00329
5999999.99444
5999999.99469
6000000.00222
5999999.99443
5999999.99509
6000000.00609
5999999.99527
5999999.99391
6000000.00091
6000000.00183
5999999.99954
6000000.0011
6000000.00034
6000000.00022
5999999.99993
6000000.00061
5999999.99952
6000000.00044
5999999.99935
6000000.00011
6000000.00015
5999999.99992
5999999.99993
5999999.99999
6000000.00121
5999999.99949
5999999.99959
6000000.00127
6000000
5999999.99983
5999999.99981
5999999.9995
5999999.99903
6000000.00026
5999999.99999
6000000.0003
5999999.99976
5999999.99936
6000000.00053
6000000.0018
5999999.9986
6000000.00098
6000000.00256
6000000.00249
5999999.99641
5999999.99755
6000000.00282
5999999.99947
6000000.00115
6000000.00064
5999999.99705
6000000.00262
6000000.00213
6000000.00024
5999999.99849
6000000.00005
5999999.99816
6000000.00314
6000000.00033
6000000.00117
5999999.99886
5999999.99794
6000000.00578
6000000.00554
5999999.99308
5999999.99724
6000000.00183
6000000.00148
5999999.99882
6000000.00123
5999999.99992
6000000.00317
5999999.99913
6000000.00206
5999999.99966
5999999.99967
6000000.00002
6000000.00004
5999999.99996
5999999.99998
5999999.99998
6000000.00001
6000000.00004
6000000.00014
6000000
6000000
6000000.00001
5999999.99999
6000000.00016
5999999.99995
6000000.00001
5999999.99993
5999999.99996
6000000.00013
6000000.00019
5999999.99995
6000000.00014
5999999.99999
6000000
5999999.99988
6000000.00028
5999999.99995
6000000.00022
5999999.9996
5999999.99942
5999999.99931
6000000.00026
5999999.99985
6000000.00231
5999999.9995
5999999.99968
5999999.99981
6000000.00011
6000000.00003
6000000.00013
5999999.99993
6000000.00001
6000000
6000000.00001
5999999.99916
6000000.00062
5999999.99887
6000000.00311
5999999.99955
5999999.9988
6000000.0015
5999999.99883
6000000.00339
6000000.00377
5999999.99885
5999999.99977
6000000.00631
6000000.00087
6000000.0007
6000000.00079
5999999.99972
6000000.00004
6000000.00007
6000000.00026
6000000.00008
6000000.00007
6000000.0002
5999999.99929
6000000.00105
6000000.00051
6000000.00033
6000000.00021
5999999.99973
6000000.00002
5999999.99992
6000000.00002
5999999.99999
6000000.00086
5999999.99861
5999999.99748
6000000.00275
5999999.99788
6000000.00256
5999999.9968
5999999.99916
5999999.99986
5999999.99733
5999999.99962
6000000.00353
5999999.99548
5999999.99417
6000000.00147
5999999.99365
5999999.99353
6000000.00122
5999999.9972
5999999.99901
5999999.99598
6000000.0022
6000000.00209
5999999.99699
6000000.00425
5999999.99792
5999999.99796
6000000.00226
6000000.00213
5999999.99981
5999999.99938
5999999.99972
6000000.00007
5999999.99987
5999999.99953
6000000.00159
5999999.99945
6000000.00178
5999999.99853
5999999.99835
6000000.00017
5999999.99889
5999999.99945
5999999.99819
5999999.99887
5999999.99887
5999999.99993
5999999.9988
6000000.00398
5999999.9995
5999999.99825
5999999.99977
5999999.99998
5999999.99996
5999999.99983
5999999.99984
6000000.00022
5999999.99998
5999999.99996
6000000.00014
6000000.00009
5999999.99998
6000000.00007
5999999.99998
6000000.00018
6000000.0004
6000000.00053
5999999.99786
5999999.99847
6000000.00103
6000000.00012
5999999.99998
5999999.99998
6000000.00001
5999999.99989
5999999.99976
6000000.00008
5999999.99998
5999999.99913
6000000.00066
5999999.99957
6000000.00118
5999999.99926
6000000.00015
6000000.00162
5999999.99945
6000000.00036
5999999.99971
6000000.00005
5999999.99991
6000000
5999999.99983
5999999.99991
5999999.99996
5999999.99958
5999999.99875
6000000.00022
5999999.99905
6000000.00243
5999999.99834
6000000.0008
6000000.00038
5999999.99986
6000000.00022
6000000.00107
5999999.99925
5999999.99576
6000000.00323
6000000.00018
6000000.00011
6000000.00057
6000000.00154
6000000.00058
5999999.99769
6000000.00377
6000000.00325
6000000.00002
5999999.99816
6000000.00233
6000000.00163
5999999.9986
6000000.00482
6000000.00034
6000000.00252
5999999.99691
5999999.99763
6000000.00111
5999999.99916
5999999.99982
5999999.99704
6000000.00369
6000000.00084
5999999.99902
6000000.00028
5999999.99845
6000000.00295
5999999.99846
6000000.0017
5999999.99514
6000000.00568
6000000.0045
5999999.9981
6000000.0012
5999999.99345
5999999.99274
6000000.00337
6000000.00257
6000000.00481
5999999.99847
5999999.99571
6000000.0043
5999999.99636
5999999.99871
5999999.99889
5999999.99835
6000000.0009
5999999.99939
6000000.00021
5999999.99973
5999999.99954
6000000.00028
5999999.99796
6000000.00169
5999999.99964
5999999.99912
6000000.00202
5999999.99835
6000000.00113
5999999.99637
6000000.00024
5999999.99999
5999999.99964
5999999.99843
5999999.99845
6000000.00151
6000000.00145
5999999.99934
6000000.00648
6000000.00251
5999999.99479
6000000.00282
5999999.99863
6000000.00652
6000000.00478
5999999.99744
5999999.99586
5999999.9988
6000000.00647
6000000.00196
5999999.9973
5999999.99641
5999999.99534
6000000.00292
5999999.99686
5999999.99485
5999999.99823
5999999.99468
6000000.0041
5999999.99731
5999999.99706
5999999.99875
6000000.00169
5999999.9977
5999999.99769
6000000.00145
6000000.00118
5999999.9966
5999999.9976
5999999.99583
5999999.99595
5999999.99722
5999999.99836
6000000.00087
5999999.99339
5999999.99452
6000000.0015
6000000.00033
5999999.99545
5999999.99614
5999999.99508
5999999.99401
6000000.00419
5999999.99717
5999999.99217
5999999.99995
5999999.99579
6000000.00205
6000000.00533
5999999.99256
5999999.99447
5999999.9976
6000000.00541
6000000.00105
5999999.99777
6000000.00328
6000000.00509
5999999.99977
6000000.00606
5999999.99622
5999999.99369
6000000.00369
6000000.00074
5999999.99943
5999999.99464
5999999.99643
6000000.00268
5999999.99606
5999999.99835
6000000.00213
5999999.99894
6000000.00295
6000000.00714
6000000.00321
5999999.99849
5999999.99527
5999999.99725
6000000.00584
6000000.00222
5999999.99565
5999999.99719
6000000.00087
6000000.0062
6000000.00099
5999999.99894
5999999.99975
6000000.00157
5999999.9985
5999999.99908
6000000.00342
6000000.00167
5999999.99694
6000000.00266
5999999.99665
5999999.99962
5999999.99737
6000000.00049
6000000.00196
5999999.99408
5999999.99999
6000000.00112
5999999.99416
5999999.99748
6000000.00296
5999999.99811
5999999.99808
6000000.00252
5999999.9984
5999999.99656
5999999.99559
5999999.99812
5999999.99585
5999999.99928
5999999.99794
6000000.0068
5999999.99765
6000000.00037
6000000.00531
5999999.99864
6000000.00172
5999999.99998
6000000.00856
5999999.99711
6000000.00076
6000000.00633
6000000.00692
5999999.99892
5999999.99793
6000000.01007
6000000.00789
6000000.00615
5999999.99805
5999999.99793
6000000.00806
6000000.00846
6000000.00179
6000000.00672
6000000.00234
5999999.99492
6000000.00678
6000000.00792
6000000.00013
5999999.99722
6000000.00751
6000000.0026
5999999.99395
6000000.00244
6000000.00218
6000000.00912
6000000.00776
5999999.99762
6000000.00226
6000000.00718
5999999.99613
5999999.99937
6000000.00652
6000000.00929
6000000.00051
6000000.00634
6000000.00563
6000000.00489
5999999.99797
6000000.00121
6000000.00841
6000000.00955
6000000.0101
6000000.00301
6000000.00293
6000000.00638
6000000.01034
5999999.99969
6000000.00289
6000000.00577
5999999.99656
6000000.00579
6000000.00523
6000000.00986
6000000.00419
6000000.00743
6000000.00575
5999999.99354
6000000.00684
6000000.00217
5999999.99846
6000000.00877
5999999.99879
5999999.99984
5999999.99859
6000000.00042
5999999.99831
5999999.9996
5999999.99893
5999999.99951
5999999.99926
5999999.99951
5999999.99726
5999999.99776
5999999.99959
5999999.99813
6000000.00022
5999999.99825
5999999.9989
5999999.99823
6000000.00013
5999999.99795
5999999.99743
5999999.99849
5999999.99967
5999999.99857
5999999.99868
5999999.99959
5999999.99753
5999999.99847
5999999.99928
5999999.99575
5999999.99834
6000000.00022
5999999.99916
5999999.99664
5999999.99944
5999999.9975
5999999.99989
5999999.99891
5999999.99871
5999999.99683
5999999.99906
6000000.00004
5999999.99783
5999999.99939
5999999.99962
5999999.9987
5999999.99882
5999999.99916
5999999.99667
5999999.99683
5999999.99937
5999999.99992
6000000.0002
6000000.0007
5999999.99829
5999999.999
5999999.99791
5999999.99827
5999999.99833
5999999.99873
5999999.99957
6000000.00046
6000000.00206
5999999.99835
5999999.99942
5999999.99941
5999999.99984
5999999.99964
6000000.00061
5999999.99982
5999999.99951
6000000.00032
5999999.99972
5999999.99978
5999999.99973
5999999.99975
6000000.00051
6000000.00009
5999999.99978
5999999.99963
6000000.00029
6000000.00036
5999999.99972
6000000.00032
5999999.99988
6000000.00039
5999999.99989
5999999.99985
6000000.00022
5999999.99994
6000000.00042
5999999.99987
6000000
5999999.99949
6000000.00029
6000000.00042
6000000.00024
6000000.00053
5999999.99994
6000000.0005
6000000.00051
5999999.99975
6000000.00018
5999999.9999
6000000.00035
6000000.00008
5999999.99969
6000000.00058
6000000.00018
6000000.00049
6000000.0003
5999999.99964
5999999.99975
5999999.99973
6000000.00016
6000000.00011
6000000.00038
6000000.00047
5999999.99971
6000000.00006
6000000.00023
5999999.99999
6000000.0003
6000000.00017
6000000.0002
6000000.00045
5999999.99972
6000000.00057
6000000.00071
6000000.00096
6000000.00093
6000000.00109
6000000.00058
6000000.00101
6000000.00083
6000000.00117
6000000.00081
6000000.00078
6000000.00081
6000000.00085
6000000.00083
6000000.00079
6000000.00087
6000000.00099
6000000.00077
6000000.00089
6000000.0011
6000000.00088
6000000.00105
6000000.00115
6000000.0007
6000000.00103
6000000.00093
6000000.00087
6000000.00069
6000000.00054
6000000.00099
6000000.00086
6000000.00085
6000000.00088
6000000.00085
6000000.00115
6000000.00071
6000000.00093
6000000.00069
6000000.00081
6000000.00061
6000000.00081
6000000.00099
6000000.001
6000000.00095
6000000.0009
6000000.00089
6000000.00092
6000000.0008
6000000.001
6000000.00116
6000000.00116
6000000.00073
6000000.00085
6000000.00082
6000000.00095
6000000.00092
6000000.00092
6000000.00097
6000000.00097
6000000.00095
6000000.00096
6000000.00091
6000000.00119
6000000.00135
6000000.00086
5999999.99902
5999999.99874
5999999.99884
5999999.99898
5999999.99879
5999999.99919
5999999.99884
5999999.99879
5999999.99873
5999999.99874
5999999.99886
5999999.99904
5999999.99903
5999999.99885
5999999.99863
5999999.99879
5999999.99877
5999999.99903
5999999.99889
5999999.99904
5999999.9988
5999999.99877
5999999.99918
5999999.99897
5999999.99879
5999999.99892
5999999.99935
5999999.99876
5999999.99895
5999999.99908
5999999.99902
5999999.99941
5999999.9991
5999999.99908
5999999.99886
5999999.99889
5999999.99915
5999999.9987
5999999.99862
5999999.9987
5999999.99906
5999999.99908
5999999.99884
5999999.99901
5999999.99894
5999999.99896
5999999.99927
5999999.99906
5999999.99883
5999999.999
5999999.99887
5999999.99868
5999999.99885
5999999.99865
5999999.99893
5999999.99888
5999999.99897
5999999.99898
5999999.9989
5999999.9989
5999999.99883
5999999.99903
5999999.99882
5999999.99888
5999999.99951
5999999.99929
5999999.9995
5999999.99979