/*--------------------------------*- C++ -*----------------------------------*\
  =========                 |
  \\      /  F ield         | OpenFOAM: The Open Source CFD Toolbox
   \\    /   O peration     | Website:  https://openfoam.org
    \\  /    A nd           | Version:  6
     \\/     M anipulation  |
\*---------------------------------------------------------------------------*/
FoamFile
{
    version     2.0;
    format      ascii;
    class       volVectorField;
    location    "4.78e-05";
    object      U;
}
// * * * * * * * * * * * * * * * * * * * * * * * * * * * * * * * * * * * * * //

dimensions      [0 1 -1 0 0 0 0];

internalField   nonuniform List<vector> 
8192
(
(-88.322 0 -2.8094315234e-10)
(-88.3219999996 0 -7.88906042124e-11)
(-88.3220000001 0 -6.91559835205e-11)
(-88.3220000003 0 -2.67677105153e-10)
(-88.3219999995 0 -6.31637080672e-11)
(-88.3219999997 0 9.01082595038e-12)
(-88.3220000003 0 -1.87848003708e-12)
(-88.322 0 1.04400863765e-10)
(-88.322 0 -2.6022215086e-10)
(-88.322 0 -5.73923751562e-10)
(-88.3219999999 0 -7.10691143893e-10)
(-88.322 0 3.63713453393e-10)
(-88.3220000002 0 6.5913723213e-10)
(-88.322 0 -7.46365359772e-10)
(-88.3219999998 0 -6.2124313584e-10)
(-88.3219999999 0 3.56773307716e-10)
(-88.3219999998 0 2.93348627634e-10)
(-88.3219999999 0 6.47910846988e-10)
(-88.3220000002 0 -4.2141206821e-10)
(-88.322 0 -5.64528854374e-10)
(-88.3219999997 0 2.6125469868e-10)
(-88.3220000003 0 3.82097943332e-10)
(-88.3220000003 0 -5.98892259804e-10)
(-88.3219999998 0 -5.64376768628e-10)
(-88.322 0 1.68751909222e-10)
(-88.3219999999 0 1.77862351197e-10)
(-88.3219999999 0 2.21925971011e-10)
(-88.3219999999 0 1.87060538172e-10)
(-88.3220000002 0 3.03872678189e-10)
(-88.3220000002 0 -1.55616307346e-10)
(-88.3219999999 0 2.13267092921e-10)
(-88.3219999996 0 -5.08297847756e-11)
(-88.3219999989 0 1.22700395799e-10)
(-88.3220000018 0 5.39051967774e-10)
(-88.3220000026 0 -8.33642972753e-10)
(-88.3219999987 0 -6.26159652764e-10)
(-88.3219999996 0 -1.42900910781e-11)
(-88.3219999996 0 -5.59098769267e-10)
(-88.3219999986 0 1.70457665183e-10)
(-88.3220000006 0 1.71596421794e-10)
(-88.3220000001 0 -5.30000441885e-11)
(-88.3219999998 0 5.99865627048e-11)
(-88.3220000002 0 -1.3533214981e-11)
(-88.322 0 -1.50090674031e-11)
(-88.322 0 -5.71389988201e-11)
(-88.322 0 -3.64120522292e-11)
(-88.322 0 -1.90847525561e-11)
(-88.322 0 -1.88930503647e-11)
(-88.322 0 2.68773916942e-11)
(-88.3219999998 0 -9.13853013274e-11)
(-88.3219999999 0 1.2205532564e-10)
(-88.3220000006 0 -5.77388672465e-11)
(-88.3219999994 0 -2.06463798919e-10)
(-88.3219999993 0 3.36971474473e-10)
(-88.3220000012 0 1.85219928362e-10)
(-88.3220000006 0 -2.10134569289e-10)
(-88.322 0 -3.27823057731e-11)
(-88.3219999998 0 -1.71240527026e-10)
(-88.3220000002 0 -4.12139299467e-11)
(-88.3219999992 0 -3.01604053086e-10)
(-88.3219999984 0 3.37244904947e-10)
(-88.3219999998 0 3.90492623926e-10)
(-88.3220000009 0 3.5911367066e-10)
(-88.3220000014 0 -2.23708305718e-11)
(-88.3220000001 0 -3.23251418931e-10)
(-88.3219999999 0 -8.75172432858e-11)
(-88.3220000002 0 1.23116591725e-10)
(-88.3219999997 0 1.2704039108e-11)
(-88.322 0 2.44189834386e-10)
(-88.3220000002 0 -1.18108564187e-10)
(-88.3219999995 0 4.86040056425e-11)
(-88.3220000006 0 4.91872074919e-12)
(-88.3220000013 0 -7.07198980422e-12)
(-88.3220000008 0 -6.07680076646e-11)
(-88.3219999982 0 6.77097266962e-11)
(-88.3219999973 0 -2.38969792085e-10)
(-88.322000002 0 -2.4287234093e-11)
(-88.3220000025 0 -1.81620273571e-10)
(-88.321999998 0 -3.08357481157e-10)
(-88.3219999983 0 3.0060338371e-10)
(-88.3219999996 0 2.26028241766e-10)
(-88.3220000016 0 1.49271554278e-10)
(-88.3220000022 0 -3.34666837138e-10)
(-88.3219999988 0 -1.91469809198e-10)
(-88.3219999984 0 -5.60936211455e-11)
(-88.3220000014 0 -1.15273625874e-11)
(-88.3220000016 0 2.03570771327e-10)
(-88.3219999987 0 -6.88634640867e-11)
(-88.3219999986 0 4.38351599092e-10)
(-88.322 0 -1.97540325216e-10)
(-88.3220000001 0 3.13653972918e-10)
(-88.3219999999 0 2.94613123866e-10)
(-88.3220000005 0 -6.70243566921e-11)
(-88.322 0 1.5978315917e-11)
(-88.3219999998 0 7.37495268143e-11)
(-88.3220000005 0 2.07862292642e-11)
(-88.3219999998 0 -2.28188835929e-10)
(-88.3220000003 0 -4.5927550515e-10)
(-88.322 0 5.56028529746e-10)
(-88.3219999995 0 6.35132067087e-10)
(-88.3220000002 0 4.43000608845e-12)
(-88.322 0 3.05343466418e-10)
(-88.322 0 -1.70019690405e-10)
(-88.322 0 -2.15774610364e-10)
(-88.322 0 1.48078750157e-10)
(-88.322 0 -8.50824779331e-11)
(-88.322 0 6.75451678162e-11)
(-88.322 0 -1.96806550193e-10)
(-88.322 0 -3.96398035674e-10)
(-88.322 0 -3.37049743071e-10)
(-88.322 0 -3.27325218114e-10)
(-88.322 0 -3.95223684053e-10)
(-88.322 0 -3.72229330701e-10)
(-88.322 0 -8.811260428e-11)
(-88.322 0 3.05812010592e-10)
(-88.3220000001 0 -9.00033257939e-11)
(-88.3219999998 0 5.86107717533e-11)
(-88.322 0 -1.04312457466e-10)
(-88.3220000001 0 -2.84024259076e-10)
(-88.3219999999 0 4.1441265642e-10)
(-88.322 0 -1.7518949256e-10)
(-88.3220000001 0 -1.67143793763e-10)
(-88.322 0 -3.84741378934e-10)
(-88.3219999999 0 8.8006133641e-10)
(-88.322 0 3.33668158441e-10)
(-88.3220000001 0 -8.04520903868e-10)
(-88.3220000001 0 -1.0887293906e-09)
(-88.322 0 -4.45410727778e-10)
(-88.3219999993 0 7.3632363313e-11)
(-88.3219999988 0 1.00448360354e-10)
(-88.322 0 -3.05912718777e-11)
(-88.322 0 1.94841734889e-10)
(-88.3219999999 0 -1.55396264775e-10)
(-88.322 0 1.43281753617e-10)
(-88.322 0 -4.26420547497e-11)
(-88.322 0 -1.00746021514e-10)
(-88.3220000002 0 2.31191208014e-10)
(-88.3219999998 0 5.35331692243e-10)
(-88.3220000003 0 6.69320878961e-10)
(-88.3220000002 0 -2.58836488683e-10)
(-88.322 0 -5.66108622966e-10)
(-88.3220000005 0 5.38878271606e-10)
(-88.3219999989 0 5.58173894167e-10)
(-88.3219999988 0 -3.76540002969e-10)
(-88.3220000001 0 -2.99940259356e-10)
(-88.3220000009 0 -5.83408199712e-10)
(-88.3220000009 0 4.53318660417e-10)
(-88.3219999994 0 5.23078940565e-10)
(-88.3219999993 0 -2.22910631346e-10)
(-88.3219999998 0 -2.15690723542e-10)
(-88.3220000004 0 5.69058552328e-10)
(-88.3219999994 0 5.60626484124e-10)
(-88.3220000003 0 -8.89213593732e-11)
(-88.322 0 -1.63964442719e-10)
(-88.3219999989 0 -9.11953032906e-11)
(-88.3220000007 0 9.47319398266e-11)
(-88.3220000007 0 -7.79350341947e-11)
(-88.3219999999 0 5.18352282488e-11)
(-88.3219999999 0 8.74810482325e-11)
(-88.3220000003 0 -7.27904782928e-12)
(-88.322 0 -4.73261949211e-10)
(-88.322 0 4.47762440109e-10)
(-88.3220000002 0 6.3244397899e-10)
(-88.322 0 -4.09426429941e-10)
(-88.3220000003 0 -7.00089176845e-10)
(-88.322 0 8.32393261369e-10)
(-88.3219999997 0 4.12662877737e-10)
(-88.3219999999 0 -3.64755502456e-10)
(-88.322 0 -4.46978916401e-10)
(-88.322 0 1.92059855336e-10)
(-88.3220000004 0 -2.82123357423e-10)
(-88.322000001 0 -6.52267296662e-11)
(-88.3220000003 0 -3.48725680065e-10)
(-88.3219999998 0 6.10139139406e-11)
(-88.3220000001 0 -6.06784602099e-10)
(-88.3219999999 0 -5.95800966723e-10)
(-88.3219999994 0 5.05471690672e-10)
(-88.3219999986 0 2.27832256244e-11)
(-88.322 0 -4.02448028342e-10)
(-88.322000001 0 1.78544259832e-10)
(-88.3219999995 0 -4.47359667682e-10)
(-88.322 0 4.13678007821e-10)
(-88.322 0 7.48001834058e-11)
(-88.3220000004 0 -3.48233253545e-10)
(-88.3220000012 0 -3.76390235437e-10)
(-88.3220000003 0 -3.998376103e-10)
(-88.3219999982 0 -1.67252784378e-10)
(-88.3219999978 0 -1.9223213265e-10)
(-88.3220000019 0 -1.58720554958e-10)
(-88.3220000027 0 8.52149065772e-11)
(-88.3220000001 0 5.73600308874e-11)
(-88.3219999999 0 7.92453683164e-11)
(-88.322 0 6.34080147249e-10)
(-88.322 0 1.89354552554e-10)
(-88.322 0 -5.14794464885e-11)
(-88.322 0 1.61797590768e-10)
(-88.322 0 -1.9514817163e-10)
(-88.322 0 3.8915687689e-11)
(-88.322 0 1.39130612554e-11)
(-88.322 0 3.79051156619e-11)
(-88.322 0 2.88784440193e-11)
(-88.322 0 9.56042766058e-11)
(-88.3219999998 0 -3.40050449957e-11)
(-88.3219999997 0 1.6784028524e-10)
(-88.3220000005 0 -1.44155202788e-11)
(-88.3220000002 0 3.95614908953e-10)
(-88.3219999998 0 3.47525514233e-10)
(-88.322 0 -2.89631662734e-10)
(-88.322 0 -2.16413163127e-10)
(-88.322 0 -2.90799827892e-10)
(-88.322 0 5.01684711281e-10)
(-88.322 0 4.48411473738e-10)
(-88.322 0 -5.09917555814e-10)
(-88.3219999999 0 -5.0821123105e-10)
(-88.322 0 3.23065008525e-10)
(-88.322 0 5.11089864163e-10)
(-88.322 0 -2.07025308106e-10)
(-88.322 0 5.77698827935e-10)
(-88.3219999996 0 -1.96027952642e-10)
(-88.3219999999 0 4.42497422659e-11)
(-88.3220000006 0 -1.03569091059e-10)
(-88.3219999997 0 -2.71876790485e-10)
(-88.3219999999 0 9.58514807334e-11)
(-88.3220000015 0 -8.95751477153e-11)
(-88.3219999989 0 6.56988739935e-12)
(-88.3219999982 0 -8.75361968409e-11)
(-88.3220000017 0 4.39418744326e-11)
(-88.3220000022 0 9.48878951377e-11)
(-88.3219999978 0 -7.52059645127e-11)
(-88.3219999978 0 3.66169834621e-10)
(-88.3220000023 0 -2.49176334305e-11)
(-88.3220000016 0 3.97120151855e-11)
(-88.3219999988 0 -7.41290791359e-11)
(-88.3219999998 0 -2.88926293112e-12)
(-88.3220000005 0 -8.70221720375e-11)
(-88.3220000002 0 1.98616622977e-10)
(-88.3219999997 0 4.26520221861e-10)
(-88.3220000005 0 3.34992619719e-10)
(-88.3220000013 0 3.51127113852e-10)
(-88.3219999978 0 2.72557759767e-10)
(-88.3219999989 0 5.21417813772e-10)
(-88.3220000017 0 1.98462531216e-10)
(-88.3219999998 0 -3.65905548774e-10)
(-88.3220000002 0 1.09739295642e-10)
(-88.3219999993 0 -2.00426582846e-10)
(-88.321999999 0 2.41608825361e-10)
(-88.3220000015 0 5.71769728054e-10)
(-88.3220000008 0 -5.42601641085e-10)
(-88.3220000001 0 -1.69116135068e-10)
(-88.3219999997 0 4.34494626005e-10)
(-88.3219999996 0 5.47498696362e-11)
(-88.3219999998 0 -4.71528589355e-10)
(-88.3219999995 0 -1.05699286486e-09)
(-88.3219999998 0 8.38973838056e-10)
(-88.3220000001 0 9.76880969632e-10)
(-88.322 0 7.55456356105e-10)
(-88.3220000005 0 -3.13124258357e-10)
(-88.3220000001 0 -1.24095263571e-10)
(-88.322 0 2.3573034906e-10)
(-88.3220000004 0 -3.9187618195e-11)
(-88.322 0 -5.80188902047e-11)
(-88.3219999996 0 -1.04166366885e-11)
(-88.322 0 -2.0242553996e-13)
(-88.322 0 3.37859197572e-11)
(-88.322 0 1.84436280826e-11)
(-88.322 0 -6.74152703264e-12)
(-88.3220000001 0 6.70728687811e-11)
(-88.3220000001 0 -2.66281398241e-10)
(-88.3219999997 0 -2.80342398386e-10)
(-88.3219999999 0 3.99988600313e-11)
(-88.3220000002 0 -2.63251563214e-11)
(-88.322 0 3.52674430968e-11)
(-88.3220000001 0 1.56106406803e-10)
(-88.3219999995 0 1.51943389445e-10)
(-88.3219999994 0 -2.42796138098e-11)
(-88.3220000015 0 -8.77983514423e-13)
(-88.3220000012 0 3.03332542586e-11)
(-88.3219999981 0 2.89033171859e-11)
(-88.3219999984 0 8.00724534173e-11)
(-88.3220000005 0 -1.26758312616e-10)
(-88.3220000001 0 1.3247527673e-10)
(-88.3220000001 0 3.85196572627e-12)
(-88.3219999999 0 2.5740623724e-10)
(-88.3220000005 0 2.86167781488e-10)
(-88.3220000013 0 3.66757699071e-10)
(-88.3219999994 0 -3.02426980768e-11)
(-88.3219999995 0 1.47893037959e-10)
(-88.3220000004 0 3.9804826514e-10)
(-88.322 0 -3.30705780397e-11)
(-88.322 0 -5.40159057849e-10)
(-88.3219999998 0 -7.5889391933e-10)
(-88.3220000002 0 2.00685480254e-10)
(-88.3219999997 0 8.73059790726e-10)
(-88.3219999999 0 -1.08201358679e-09)
(-88.3220000003 0 -2.84173591417e-10)
(-88.322 0 1.60908992397e-10)
(-88.322 0 3.90832190766e-10)
(-88.322 0 -1.61961651613e-10)
(-88.322 0 2.42972178929e-10)
(-88.322 0 7.22374815971e-11)
(-88.322 0 3.20507038565e-10)
(-88.322 0 -4.68673315704e-11)
(-88.3220000002 0 6.04042469497e-10)
(-88.3219999997 0 5.11271105059e-10)
(-88.3219999996 0 -4.37831126145e-10)
(-88.3220000004 0 -1.31105831264e-10)
(-88.3220000001 0 3.02189920364e-10)
(-88.3220000007 0 -1.73797088944e-12)
(-88.3219999993 0 3.59098898215e-10)
(-88.3219999984 0 -4.24356674244e-10)
(-88.3220000015 0 -7.37380468478e-11)
(-88.3220000018 0 -2.40162000211e-10)
(-88.3219999992 0 1.69472278624e-10)
(-88.3219999999 0 1.14653143681e-10)
(-88.3219999998 0 -3.01215600412e-10)
(-88.3220000001 0 7.85764501275e-10)
(-88.3219999992 0 6.6114184614e-10)
(-88.3219999986 0 3.98553761643e-10)
(-88.3220000002 0 1.64085116641e-10)
(-88.3220000004 0 -1.86113575823e-11)
(-88.3220000002 0 -1.12841250735e-10)
(-88.321999999 0 -2.21508344089e-10)
(-88.322 0 4.16257160069e-10)
(-88.3220000005 0 6.2742699229e-10)
(-88.322 0 -3.90716938122e-12)
(-88.3219999999 0 4.31714921554e-10)
(-88.322 0 3.26794764793e-10)
(-88.322 0 -4.38779022621e-10)
(-88.322 0 1.86601993945e-11)
(-88.3219999998 0 9.35843157961e-11)
(-88.3220000003 0 -4.77152779845e-11)
(-88.3220000003 0 1.90766594075e-10)
(-88.3219999998 0 1.86068179927e-10)
(-88.3219999998 0 -5.34327888277e-10)
(-88.3219999998 0 5.04308006883e-10)
(-88.3219999997 0 4.09964616367e-10)
(-88.3219999997 0 5.38732662136e-10)
(-88.3220000003 0 1.17452455461e-10)
(-88.3220000003 0 -7.0471258759e-10)
(-88.322 0 -2.52403636067e-10)
(-88.3219999998 0 9.04580621759e-10)
(-88.3219999998 0 1.09685197386e-09)
(-88.3220000004 0 -6.39355465212e-10)
(-88.3219999999 0 -6.26033598329e-10)
(-88.3219999998 0 -4.5641772236e-10)
(-88.3219999998 0 -8.24812397995e-11)
(-88.3219999991 0 1.16439721413e-10)
(-88.3219999996 0 -4.61231226267e-10)
(-88.3220000013 0 5.3252815842e-10)
(-88.3220000001 0 7.33192403501e-10)
(-88.3219999991 0 -1.23395939552e-10)
(-88.322000002 0 -3.63834300821e-10)
(-88.3220000007 0 9.72737183834e-11)
(-88.3219999995 0 1.71343573376e-10)
(-88.3220000002 0 1.20356514361e-10)
(-88.3219999989 0 -1.26408814238e-10)
(-88.3220000003 0 -6.63063955582e-12)
(-88.322 0 -5.91193210756e-11)
(-88.3219999999 0 4.40325770263e-12)
(-88.3220000003 0 5.97414390176e-11)
(-88.3219999996 0 4.7286740276e-11)
(-88.322 0 -2.38150940788e-11)
(-88.322 0 1.72089224224e-11)
(-88.322 0 9.9217620986e-12)
(-88.322 0 8.5066369904e-12)
(-88.322 0 1.12270819165e-11)
(-88.3220000002 0 -8.11455358585e-11)
(-88.3219999998 0 2.99216125872e-10)
(-88.3220000001 0 -2.14033995311e-10)
(-88.3220000002 0 -7.59885729661e-11)
(-88.3219999995 0 -1.91348202237e-11)
(-88.3220000002 0 1.09101550966e-10)
(-88.3220000001 0 2.81626963952e-10)
(-88.3219999998 0 -4.25933858138e-10)
(-88.3220000012 0 -4.71227191965e-10)
(-88.3220000002 0 3.0241618732e-10)
(-88.3219999994 0 3.55485251414e-10)
(-88.3220000007 0 4.84885671669e-11)
(-88.3219999983 0 4.07533811377e-10)
(-88.3219999979 0 -9.09952812192e-11)
(-88.3220000002 0 4.76354338505e-10)
(-88.3220000007 0 -2.55171436654e-10)
(-88.3220000009 0 -7.77107262037e-11)
(-88.3220000009 0 -2.54282001201e-10)
(-88.3220000004 0 4.9038825216e-10)
(-88.321999999 0 2.15404827456e-11)
(-88.3219999984 0 -2.90640182268e-10)
(-88.3220000013 0 5.07041966486e-11)
(-88.3220000004 0 3.06593209118e-11)
(-88.3219999989 0 5.17136162943e-11)
(-88.3220000018 0 -8.9856738956e-11)
(-88.3220000006 0 6.21491276872e-11)
(-88.321999999 0 -1.75572151617e-10)
(-88.3220000002 0 -1.70177954902e-10)
(-88.3219999998 0 4.07731218455e-10)
(-88.3219999997 0 -3.7956539643e-10)
(-88.3220000012 0 -3.29042427408e-10)
(-88.3219999993 0 -6.02178799296e-11)
(-88.3219999984 0 -1.21445632941e-10)
(-88.3219999999 0 1.03212915416e-11)
(-88.3220000008 0 -2.56275074095e-10)
(-88.322000002 0 -1.2651614276e-10)
(-88.322 0 3.77146344473e-11)
(-88.3219999982 0 -2.51103255013e-12)
(-88.3219999985 0 -1.41083042417e-12)
(-88.3220000012 0 -3.42883883783e-11)
(-88.3220000019 0 1.80267484624e-12)
(-88.322 0 -1.55472266343e-11)
(-88.321999999 0 -7.73828784262e-11)
(-88.321999999 0 4.78900044968e-11)
(-88.3220000007 0 -3.29279283818e-10)
(-88.3219999996 0 -3.55457087086e-10)
(-88.3219999989 0 -5.87211977223e-10)
(-88.3220000008 0 3.08485095529e-10)
(-88.3220000018 0 -4.53252087827e-10)
(-88.322 0 -3.76953435512e-10)
(-88.3219999989 0 8.16212700947e-10)
(-88.3219999999 0 2.00846828621e-10)
(-88.3220000005 0 -1.20857301786e-10)
(-88.3220000004 0 -4.63002524003e-10)
(-88.3219999996 0 -1.40886674525e-10)
(-88.3219999999 0 6.26689137404e-10)
(-88.322 0 -1.78350224932e-10)
(-88.3219999999 0 -8.39953596234e-11)
(-88.3220000001 0 5.04433396188e-11)
(-88.322 0 8.74307712976e-11)
(-88.322 0 -2.00810840671e-10)
(-88.322 0 6.60324714615e-11)
(-88.322 0 3.64158915876e-11)
(-88.3220000001 0 1.04435525635e-11)
(-88.3219999996 0 -9.99697759607e-12)
(-88.322 0 -4.01292841708e-11)
(-88.3220000004 0 3.19045046149e-11)
(-88.3219999999 0 -3.88013138043e-11)
(-88.3219999998 0 1.20365056117e-10)
(-88.3220000002 0 -4.37762000475e-11)
(-88.3220000003 0 6.33323990439e-11)
(-88.3219999998 0 -6.81915006362e-11)
(-88.322 0 4.7237930094e-11)
(-88.3220000002 0 3.22745728473e-10)
(-88.3219999998 0 1.55300767854e-11)
(-88.3219999998 0 9.63692729136e-11)
(-88.3220000002 0 4.78511977803e-10)
(-88.3219999999 0 -5.18165799652e-10)
(-88.3219999997 0 -4.80781181496e-10)
(-88.3219999997 0 4.7320848961e-11)
(-88.3220000002 0 2.57685379845e-10)
(-88.3220000005 0 -9.98024638249e-11)
(-88.322 0 9.52816840438e-11)
(-88.3220000005 0 2.13819703921e-10)
(-88.3219999998 0 -3.899574986e-10)
(-88.3219999999 0 -6.54883269509e-10)
(-88.322 0 1.91047088449e-10)
(-88.3220000002 0 -4.394011113e-10)
(-88.3219999999 0 -3.549239482e-10)
(-88.3220000001 0 4.32997307973e-10)
(-88.3220000005 0 -3.40703839055e-11)
(-88.3219999986 0 -1.20735998558e-10)
(-88.3220000008 0 8.05782697504e-11)
(-88.3220000019 0 -1.79518531231e-10)
(-88.3219999992 0 -1.06458681346e-10)
(-88.3219999993 0 3.84823088866e-10)
(-88.3219999996 0 -5.02138543514e-10)
(-88.3219999999 0 -3.59454340104e-10)
(-88.322 0 -5.23158192271e-10)
(-88.3219999998 0 5.85061919352e-12)
(-88.3220000001 0 4.64396765858e-10)
(-88.322 0 2.6837549989e-11)
(-88.3219999999 0 -3.8403061842e-10)
(-88.3219999998 0 -7.15817749861e-10)
(-88.3220000004 0 2.05455549815e-10)
(-88.322 0 1.97088873492e-10)
(-88.3219999997 0 2.40124621067e-10)
(-88.3220000003 0 -2.73286030234e-10)
(-88.3219999998 0 -2.97108000305e-10)
(-88.3220000002 0 6.67900278657e-11)
(-88.322 0 -5.04480827219e-10)
(-88.322 0 -4.78393461855e-10)
(-88.3220000003 0 -9.51534998257e-11)
(-88.3219999994 0 4.15852275868e-10)
(-88.3219999997 0 -8.1937168579e-11)
(-88.3220000014 0 -9.58945782197e-11)
(-88.3220000016 0 -1.16071762441e-10)
(-88.321999999 0 -5.21497586624e-11)
(-88.321999998 0 2.29847722884e-10)
(-88.3220000001 0 -5.01671451978e-11)
(-88.3220000013 0 8.85166572457e-11)
(-88.3219999999 0 -3.57104360557e-11)
(-88.3219999993 0 -2.43431515531e-11)
(-88.3220000005 0 4.2247271929e-11)
(-88.322 0 -8.83227776958e-12)
(-88.3219999995 0 -1.24972467132e-11)
(-88.3220000001 0 -4.28098859804e-11)
(-88.322 0 -2.35140838894e-11)
(-88.3220000002 0 4.72801403586e-11)
(-88.3219999998 0 -1.96140392969e-10)
(-88.3220000001 0 5.36926298766e-11)
(-88.322 0 1.19810698807e-10)
(-88.3219999995 0 -1.65275762693e-10)
(-88.3220000002 0 -1.93030239765e-10)
(-88.322 0 1.19153367693e-10)
(-88.3219999998 0 5.932176232e-10)
(-88.3220000005 0 5.86450789506e-10)
(-88.3220000003 0 -2.84050286506e-10)
(-88.3219999999 0 -3.62795327822e-10)
(-88.3219999998 0 -2.37393365471e-10)
(-88.3219999996 0 -4.66407277083e-10)
(-88.3219999998 0 1.7114288662e-10)
(-88.3219999991 0 -4.37757535292e-10)
(-88.3219999993 0 3.553730706e-10)
(-88.3220000013 0 -1.84156178828e-10)
(-88.3220000004 0 1.47397530383e-10)
(-88.3220000003 0 -2.9724859436e-10)
(-88.3220000001 0 1.97388994954e-11)
(-88.322 0 -4.76755586969e-11)
(-88.322 0 3.2192438422e-12)
(-88.322 0 -7.5752261464e-11)
(-88.322 0 9.09150114088e-11)
(-88.322 0 4.22842377146e-11)
(-88.322 0 -9.69939394187e-11)
(-88.3220000001 0 1.70200654945e-10)
(-88.322 0 1.59891395707e-10)
(-88.322 0 -4.77476430045e-10)
(-88.322 0 5.60267712119e-10)
(-88.322 0 5.39734529999e-10)
(-88.322 0 7.51532241787e-11)
(-88.322 0 1.21364554668e-10)
(-88.322 0 -3.84225515043e-11)
(-88.322 0 8.96216062762e-11)
(-88.322 0 -1.41180522956e-11)
(-88.322 0 1.10078636183e-12)
(-88.322 0 1.24453528498e-11)
(-88.322 0 -2.51639010305e-11)
(-88.322 0 1.48485514941e-11)
(-88.322 0 -1.60898711859e-11)
(-88.322 0 1.67544701321e-10)
(-88.322 0 -6.64677785526e-11)
(-88.322 0 -4.46039399368e-11)
(-88.322 0 8.6902036904e-11)
(-88.322 0 -2.59293026054e-11)
(-88.322 0 4.46087163871e-11)
(-88.322 0 -2.0235592603e-10)
(-88.322 0 4.84906668028e-11)
(-88.322 0 -9.50604212397e-11)
(-88.322 0 -2.36060385115e-11)
(-88.322 0 1.99453196975e-10)
(-88.3220000003 0 -1.73823979322e-10)
(-88.3219999999 0 1.68149883479e-10)
(-88.3219999996 0 -1.9999449625e-10)
(-88.3220000001 0 -7.39530800734e-10)
(-88.322 0 1.74805708127e-10)
(-88.322 0 3.16360249301e-10)
(-88.322 0 -3.08164556109e-11)
(-88.322 0 -8.71973933013e-11)
(-88.322 0 2.05614486903e-10)
(-88.322 0 -9.47838871358e-11)
(-88.322 0 -3.423191764e-11)
(-88.322 0 -2.65906354859e-11)
(-88.322 0 -6.38432233951e-11)
(-88.322 0 1.51137277386e-10)
(-88.3219999998 0 -1.35548413996e-11)
(-88.3220000003 0 2.07512376669e-10)
(-88.3220000004 0 -5.58211196718e-11)
(-88.3219999995 0 -7.96388509513e-11)
(-88.3219999988 0 -1.77433001073e-10)
(-88.3219999989 0 6.89239748888e-11)
(-88.3220000019 0 1.33390762654e-10)
(-88.3220000021 0 -2.41842225376e-10)
(-88.3219999996 0 -1.07205556933e-10)
(-88.322 0 -4.45844363955e-11)
(-88.3219999993 0 -1.16503029e-10)
(-88.3219999998 0 5.57882114509e-11)
(-88.3219999993 0 5.88897764155e-11)
(-88.3219999992 0 -1.02647464203e-09)
(-88.3220000006 0 -8.74913191912e-10)
(-88.322 0 -2.39006760757e-10)
(-88.3219999996 0 1.41798997142e-10)
(-88.3220000001 0 1.23338856066e-10)
(-88.3219999999 0 -1.68147866459e-10)
(-88.322 0 -5.44842048227e-11)
(-88.3219999997 0 7.6880445373e-11)
(-88.3219999999 0 6.02738771787e-11)
(-88.3220000003 0 -1.36528968777e-10)
(-88.322 0 -1.51505520429e-10)
(-88.322 0 -3.43147202057e-11)
(-88.322 0 -7.35960223002e-11)
(-88.322 0 1.18999085955e-11)
(-88.3219999999 0 -3.04724351613e-11)
(-88.3220000002 0 -1.14026296901e-11)
(-88.3220000001 0 -2.3517285754e-11)
(-88.3219999998 0 -3.29820365264e-11)
(-88.322 0 -4.23464198312e-11)
(-88.322 0 -3.84357543502e-11)
(-88.322 0 -4.54542019348e-12)
(-88.322 0 5.13277100195e-11)
(-88.322 0 -1.7022020751e-10)
(-88.3219999999 0 -7.26352952178e-11)
(-88.3219999998 0 5.15027612348e-10)
(-88.322 0 3.56184353934e-10)
(-88.3220000001 0 -4.7088932514e-10)
(-88.3220000001 0 -3.53602754085e-10)
(-88.322 0 -1.10115281857e-10)
(-88.3219999998 0 7.14969857458e-11)
(-88.3220000002 0 -1.72648663793e-10)
(-88.3220000003 0 1.32344940946e-10)
(-88.322 0 -1.51374374769e-10)
(-88.3220000001 0 -4.06471481925e-10)
(-88.3219999996 0 -3.19455366971e-10)
(-88.321999999 0 2.67737555074e-10)
(-88.3220000016 0 -4.3031543691e-10)
(-88.3220000016 0 -4.67853086191e-10)
(-88.3219999991 0 -4.13997012733e-10)
(-88.3219999999 0 4.49736434382e-10)
(-88.3219999994 0 3.36971723448e-10)
(-88.3219999991 0 -3.74296364228e-10)
(-88.3220000003 0 -2.439998961e-10)
(-88.322 0 5.32508755748e-10)
(-88.322 0 1.20213861541e-10)
(-88.322 0 -3.55151387672e-10)
(-88.322 0 -5.69483704973e-10)
(-88.322 0 2.39415175812e-10)
(-88.3220000002 0 -2.41036356457e-10)
(-88.3219999999 0 -9.20063028323e-11)
(-88.3219999997 0 -5.15723272309e-10)
(-88.322 0 4.23798496208e-10)
(-88.3220000001 0 -1.3066466657e-10)
(-88.322 0 6.67071875681e-11)
(-88.3220000006 0 2.93294148982e-10)
(-88.3219999998 0 -4.117691e-10)
(-88.3219999993 0 -9.60016344021e-10)
(-88.3220000011 0 -1.15154810999e-09)
(-88.3220000007 0 -4.27960531306e-10)
(-88.3219999995 0 1.0115002922e-09)
(-88.3219999998 0 5.82875797024e-10)
(-88.3219999993 0 -7.6082317557e-11)
(-88.3219999994 0 -7.12850914164e-10)
(-88.3220000013 0 7.58593786388e-10)
(-88.3220000011 0 -3.35396269398e-11)
(-88.3219999996 0 -1.83531418039e-10)
(-88.3219999994 0 -3.26673535589e-11)
(-88.322 0 1.08056155753e-10)
(-88.3220000007 0 5.2431197002e-11)
(-88.3220000004 0 2.56419065228e-10)
(-88.3219999996 0 -2.30627168894e-10)
(-88.3219999998 0 1.88221357427e-10)
(-88.3220000005 0 -2.69554380115e-10)
(-88.3220000004 0 2.30896907644e-10)
(-88.3219999998 0 2.68636143606e-10)
(-88.322 0 -2.2480877338e-10)
(-88.3219999998 0 -4.18784305259e-10)
(-88.322 0 -1.35293052773e-10)
(-88.322 0 -4.69842786805e-10)
(-88.322 0 -4.49562725413e-10)
(-88.322 0 -1.47219662518e-10)
(-88.322 0 7.45183640799e-11)
(-88.322 0 3.94501765566e-11)
(-88.322 0 1.03785655501e-10)
(-88.3219999999 0 -3.58912018675e-10)
(-88.3220000004 0 -7.25211967581e-10)
(-88.3220000002 0 3.30531118439e-10)
(-88.3219999986 0 3.23351012067e-10)
(-88.3219999991 0 7.7289005932e-10)
(-88.3220000021 0 -4.79294016408e-10)
(-88.3220000014 0 -4.60280845119e-10)
(-88.3219999993 0 3.07718493396e-10)
(-88.3219999992 0 2.95548972795e-10)
(-88.3220000001 0 2.92268146128e-10)
(-88.322 0 1.03840661463e-10)
(-88.3220000001 0 3.27905491351e-10)
(-88.322000001 0 1.03850561292e-10)
(-88.3220000002 0 4.08869095467e-11)
(-88.3219999986 0 9.68125293384e-11)
(-88.3220000002 0 -1.39939616529e-10)
(-88.3220000014 0 -3.91819457344e-10)
(-88.3220000004 0 5.44525085262e-10)
(-88.321999998 0 8.0198372166e-10)
(-88.3219999981 0 5.07581988045e-10)
(-88.3220000016 0 7.46109408576e-10)
(-88.3220000011 0 -5.13194419107e-10)
(-88.3219999983 0 -4.2551497721e-11)
(-88.3219999993 0 2.91092201948e-11)
(-88.3220000018 0 -6.55776578181e-11)
(-88.3220000013 0 5.91876969957e-11)
(-88.3219999988 0 -1.00529786498e-10)
(-88.3219999994 0 4.72794437732e-11)
(-88.3220000006 0 -1.19944241914e-10)
(-88.3220000005 0 -3.01476857532e-10)
(-88.3219999989 0 2.41346347638e-10)
(-88.321999999 0 3.39266071961e-10)
(-88.3220000011 0 4.44696367496e-10)
(-88.3219999995 0 -3.4237949967e-10)
(-88.3220000005 0 -3.46046328495e-10)
(-88.3220000011 0 7.20785405562e-10)
(-88.3220000003 0 1.07930443082e-10)
(-88.3220000009 0 1.1548324413e-10)
(-88.3219999979 0 3.53483788741e-10)
(-88.3219999976 0 5.51943321894e-10)
(-88.3220000022 0 6.58762758869e-10)
(-88.3220000017 0 -2.44931685771e-10)
(-88.3219999981 0 -3.99019540178e-10)
(-88.3219999979 0 -1.9078742953e-10)
(-88.3220000011 0 4.45624485769e-10)
(-88.3220000006 0 4.10760397358e-10)
(-88.3219999993 0 2.98655895567e-10)
(-88.322 0 -1.92585755615e-10)
(-88.3219999998 0 -2.1673614497e-10)
(-88.3220000004 0 1.38060283615e-10)
(-88.322 0 -2.5889213148e-11)
(-88.3219999999 0 -6.93162865865e-11)
(-88.3219999999 0 -1.17532753218e-10)
(-88.3219999992 0 1.32834440642e-10)
(-88.3220000008 0 1.07780979384e-10)
(-88.3220000014 0 4.0053004553e-11)
(-88.3219999998 0 -3.70258828481e-11)
(-88.322 0 -3.28248689787e-10)
(-88.3220000005 0 -2.72657536602e-11)
(-88.3219999996 0 -8.77757327915e-11)
(-88.321999999 0 -1.09368778322e-10)
(-88.3219999995 0 7.92571480883e-11)
(-88.3219999999 0 -1.12256210446e-10)
(-88.3220000008 0 -1.08811450339e-11)
(-88.3220000017 0 -1.20346376752e-12)
(-88.3219999988 0 -6.93560123658e-11)
(-88.3219999979 0 1.95072789676e-10)
(-88.321999999 0 1.84855481583e-12)
(-88.3220000015 0 -3.61274413021e-10)
(-88.3220000025 0 -2.32463603521e-10)
(-88.3219999986 0 3.29945657556e-10)
(-88.3219999985 0 4.68045871231e-10)
(-88.322 0 1.11295350972e-10)
(-88.3220000001 0 -4.78991801709e-11)
(-88.3220000001 0 1.76774456698e-10)
(-88.3220000003 0 -9.55780004829e-11)
(-88.3220000005 0 1.62855436124e-10)
(-88.3220000001 0 4.09858545048e-10)
(-88.322 0 3.1775212391e-10)
(-88.3219999999 0 -2.60099759234e-10)
(-88.3220000003 0 5.28170044017e-10)
(-88.3219999994 0 2.74417269031e-10)
(-88.321999999 0 6.3564918094e-10)
(-88.3220000001 0 -5.08123899973e-10)
(-88.3220000014 0 -3.37399381557e-10)
(-88.3220000006 0 5.22714853606e-10)
(-88.3219999993 0 2.07587604024e-10)
(-88.322 0 -5.40526032869e-10)
(-88.322 0 -1.12782506462e-10)
(-88.3220000002 0 3.38425901274e-10)
(-88.322 0 5.95550322106e-10)
(-88.322 0 -4.03471591971e-10)
(-88.3220000008 0 2.33310379578e-10)
(-88.3219999992 0 6.2305328945e-11)
(-88.3219999984 0 5.26582585321e-10)
(-88.3219999996 0 -4.50905468506e-10)
(-88.3220000016 0 2.60087408983e-11)
(-88.3220000017 0 1.5162072809e-10)
(-88.3219999984 0 -5.6001879104e-10)
(-88.3219999989 0 1.15354800786e-10)
(-88.3220000004 0 7.69937343519e-10)
(-88.3220000006 0 7.41967968427e-10)
(-88.322 0 4.62707247304e-10)
(-88.321999999 0 -4.32825581963e-10)
(-88.3220000013 0 -6.01023033006e-10)
(-88.3220000013 0 5.07966593552e-10)
(-88.3219999994 0 4.92744495819e-10)
(-88.3219999997 0 -4.03125116866e-10)
(-88.322 0 -5.19571388891e-10)
(-88.3219999999 0 1.33035463037e-10)
(-88.322 0 -1.74405276193e-10)
(-88.322 0 -4.06123032219e-11)
(-88.322 0 1.22638939343e-10)
(-88.322 0 -2.16105019219e-10)
(-88.322 0 1.82522772702e-10)
(-88.322 0 -1.15930991617e-10)
(-88.322 0 1.52458236357e-10)
(-88.322 0 -2.24881562732e-10)
(-88.322 0 -1.38305899984e-10)
(-88.3220000002 0 -2.141876022e-10)
(-88.3220000005 0 1.72521861746e-11)
(-88.3219999999 0 3.58807773176e-10)
(-88.3219999995 0 1.7894889327e-10)
(-88.3220000002 0 -1.37954610412e-10)
(-88.3219999997 0 -2.84301914886e-10)
(-88.322 0 1.40968962015e-10)
(-88.3220000001 0 1.9461182354e-10)
(-88.3219999997 0 -2.3150125057e-10)
(-88.322 0 4.0280729604e-10)
(-88.322 0 7.20573986229e-10)
(-88.3220000001 0 -3.09147983706e-10)
(-88.3219999997 0 -3.33795935124e-10)
(-88.3219999997 0 -7.9602398501e-10)
(-88.3220000006 0 3.94668901811e-10)
(-88.322 0 4.21905466073e-10)
(-88.3219999998 0 -3.33796151542e-10)
(-88.3220000002 0 -3.01517636707e-10)
(-88.322 0 -3.37699975941e-10)
(-88.322 0 -2.18264003134e-10)
(-88.322 0 -2.28400810136e-10)
(-88.322 0 -1.12179047371e-10)
(-88.322 0 1.15278274921e-10)
(-88.322 0 1.22684739802e-10)
(-88.3219999997 0 -1.50065319379e-10)
(-88.3220000003 0 3.52833602824e-10)
(-88.3220000003 0 -3.06467990313e-10)
(-88.3219999996 0 -7.01848447364e-10)
(-88.322 0 -5.54264531902e-10)
(-88.3219999997 0 -1.35949070132e-10)
(-88.3220000002 0 -5.91086135348e-11)
(-88.3220000005 0 -4.68110369026e-10)
(-88.3219999999 0 2.34261628944e-10)
(-88.322 0 3.55680139004e-10)
(-88.322 0 -3.78672865264e-10)
(-88.3220000003 0 6.02858550959e-11)
(-88.3220000001 0 -5.1601523517e-10)
(-88.3219999997 0 -4.52687443676e-10)
(-88.322 0 1.40244591599e-10)
(-88.3219999999 0 -7.95892506625e-10)
(-88.322 0 -4.78264234792e-10)
(-88.3219999999 0 -4.82208397717e-10)
(-88.3220000007 0 2.24549834947e-10)
(-88.3220000006 0 2.94038635591e-10)
(-88.3219999986 0 -5.67379546169e-10)
(-88.3219999991 0 -1.17504358828e-10)
(-88.3220000014 0 -4.90178044983e-10)
(-88.3220000003 0 2.66931226032e-10)
(-88.3219999998 0 -4.56309497583e-10)
(-88.3220000003 0 -8.90582924215e-10)
(-88.3219999997 0 -1.96836879835e-10)
(-88.3219999999 0 9.04608776017e-11)