/*--------------------------------*- C++ -*----------------------------------*\
  =========                 |
  \\      /  F ield         | OpenFOAM: The Open Source CFD Toolbox
   \\    /   O peration     | Website:  https://openfoam.org
    \\  /    A nd           | Version:  6
     \\/     M anipulation  |
\*---------------------------------------------------------------------------*/
FoamFile
{
    version     2.0;
    format      ascii;
    class       volScalarField;
    location    "5.06e-05";
    object      p;
}
// * * * * * * * * * * * * * * * * * * * * * * * * * * * * * * * * * * * * * //

dimensions      [1 -1 -2 0 0 0 0];

internalField   nonuniform List<scalar> 
8192
(
6000000.00096
5999999.99938
6000000.00017
6000000.0014
6000000.00542
5999999.99816
6000000.00227
5999999.99906
6000000.00083
5999999.99983
6000000.0002
5999999.99987
6000000.00056
6000000.00142
6000000.00078
6000000.00076
6000000.00055
5999999.99757
5999999.99903
6000000.00058
5999999.99862
5999999.99739
6000000.00169
5999999.99988
5999999.99945
5999999.99981
5999999.99751
5999999.99887
5999999.99823
5999999.99866
6000000.00026
6000000.00084
5999999.99624
5999999.994
6000000.00773
6000000.0074
5999999.99919
6000000.00416
5999999.99985
5999999.99645
6000000.00474
5999999.99708
6000000.00046
5999999.99985
6000000.00081
6000000.0005
6000000.00034
5999999.99947
5999999.99931
6000000.00171
5999999.99634
6000000.00112
6000000.00359
5999999.99525
5999999.9956
6000000.00118
6000000
6000000.00376
6000000.00021
6000000.0066
5999999.99631
5999999.99702
5999999.997
6000000.0031
6000000.00104
6000000.00254
6000000.00029
6000000.00442
5999999.99511
6000000.00354
5999999.99842
5999999.99594
6000000.00225
6000000.00264
6000000.00678
5999999.99674
5999999.99474
6000000.00634
6000000.00244
5999999.99507
5999999.9945
5999999.99194
6000000.00315
6000000.0058
6000000.0001
5999999.99933
6000000.00634
6000000.00463
5999999.99678
5999999.99705
5999999.99807
5999999.99823
5999999.99667
6000000.00513
5999999.99643
6000000.00274
6000000.00172
5999999.99944
6000000.00375
5999999.99819
5999999.99969
5999999.99988
5999999.99984
6000000.00044
5999999.9984
6000000.00024
6000000.00012
6000000
5999999.99998
5999999.99998
6000000.00016
6000000.00048
5999999.99939
6000000.0008
5999999.99951
6000000.00197
6000000.00015
5999999.99833
6000000.0007
5999999.99871
5999999.99895
5999999.99858
6000000.0004
5999999.99838
6000000.00016
5999999.99951
6000000.00031
6000000.00033
6000000.0065
6000000.00048
5999999.99585
6000000.00083
5999999.99807
5999999.99961
5999999.99998
5999999.99941
6000000.00106
6000000.00085
5999999.99852
6000000.00359
6000000.00073
6000000.00321
6000000.00435
5999999.99685
5999999.99725
5999999.99797
6000000.00209
6000000.00228
5999999.99986
5999999.99994
5999999.99873
6000000.00073
5999999.99453
5999999.99996
5999999.99655
5999999.99684
6000000.00184
6000000.0016
5999999.99794
5999999.99917
5999999.99979
5999999.99972
6000000.00005
6000000.00041
5999999.99958
6000000.00225
6000000.00018
6000000.0012
5999999.99724
6000000.00063
5999999.99685
6000000.00365
6000000.0019
6000000.0027
6000000.00194
6000000.00412
6000000.00243
5999999.99993
5999999.99394
6000000.00331
6000000.00202
5999999.99766
6000000.0006
5999999.99776
6000000.00323
6000000.00031
6000000.0021
5999999.99222
5999999.99245
6000000.00187
6000000.00623
6000000.00417
5999999.99925
5999999.99892
6000000.00156
6000000.00072
5999999.99984
6000000.00001
5999999.99997
6000000.00001
6000000.00015
6000000.00017
6000000
5999999.99708
5999999.99748
6000000.00336
5999999.99927
5999999.99997
6000000.00004
5999999.99998
6000000.00011
6000000.00028
6000000.00047
5999999.99958
5999999.99994
6000000.00025
5999999.99946
6000000.00083
6000000.00001
5999999.99441
6000000.00156
6000000.00208
5999999.99714
6000000.00094
6000000.0068
5999999.99412
5999999.99682
6000000.00523
6000000.00851
5999999.99189
5999999.99395
6000000.00123
6000000.00432
5999999.99508
6000000.00352
6000000.00051
6000000.00478
5999999.99827
6000000.00711
6000000.00355
5999999.9906
6000000.00068
6000000.00718
5999999.99885
6000000.00555
5999999.99293
5999999.99788
6000000.00117
6000000.00391
6000000.00419
6000000.00043
6000000.00246
6000000.0008
5999999.99902
5999999.99931
5999999.99927
6000000
5999999.99865
6000000.00075
5999999.99759
6000000.00176
5999999.99797
5999999.99947
5999999.99905
5999999.99955
5999999.99978
6000000.00003
6000000.00166
6000000.00157
5999999.99598
6000000.00041
6000000.00241
5999999.99983
6000000.0032
5999999.99558
5999999.9965
6000000.00515
6000000.00031
5999999.99629
5999999.99433
6000000.00014
5999999.99328
5999999.99861
5999999.99444
6000000.00196
6000000.00644
5999999.99581
6000000.00069
5999999.99912
6000000.00146
5999999.99913
5999999.99933
6000000.00163
5999999.99769
6000000.00262
6000000.00038
6000000.00009
6000000.00019
6000000.00001
6000000.00001
6000000.00005
6000000.00035
5999999.99886
6000000.00159
5999999.99759
5999999.99955
5999999.99764
6000000.00242
6000000.00636
5999999.99883
5999999.9934
6000000.00373
6000000.0077
5999999.99748
6000000.00355
5999999.99817
6000000.00799
5999999.99639
5999999.9959
5999999.99595
6000000.00139
6000000.00306
5999999.99412
6000000.00219
6000000.00145
5999999.99956
6000000.00131
5999999.9977
6000000.00061
6000000.00073
5999999.99707
6000000.00254
6000000.0022
6000000.00092
6000000.00018
5999999.9998
5999999.99681
5999999.99698
6000000.00098
6000000.00129
5999999.99975
5999999.99804
5999999.99709
6000000.00055
5999999.99653
6000000.00085
5999999.99637
5999999.99433
5999999.99663
6000000.00393
5999999.99703
5999999.99644
6000000.00725
5999999.99873
6000000.00316
5999999.99965
5999999.99575
6000000.00389
5999999.99452
6000000.00426
6000000.00005
5999999.99913
6000000.00173
5999999.9997
6000000.00146
6000000.00009
6000000.00126
6000000.00173
5999999.99771
6000000.00349
6000000.00183
5999999.99659
6000000.00197
6000000.00057
5999999.99996
6000000.00392
5999999.99733
6000000.00456
6000000.00265
5999999.99418
5999999.99162
5999999.99504
5999999.9985
6000000.00163
6000000.00288
6000000.00374
5999999.993
5999999.9912
6000000.00164
5999999.99568
5999999.99889
6000000.00494
5999999.998
5999999.99865
6000000.00278
5999999.99592
5999999.99796
6000000.00648
5999999.99606
5999999.99878
5999999.99454
6000000.00278
6000000.00531
5999999.99933
5999999.99795
5999999.99187
6000000.00516
5999999.99871
6000000.00533
5999999.99918
5999999.99612
6000000.00385
5999999.99484
5999999.99419
6000000.00054
6000000.00279
5999999.99824
5999999.9981
5999999.99783
6000000.00185
6000000.00189
5999999.99685
6000000.00231
5999999.99829
5999999.99945
6000000.00127
5999999.99881
5999999.99946
5999999.99981
6000000.00094
6000000.00146
5999999.9973
6000000.00207
6000000.00068
5999999.99958
5999999.99767
6000000.00213
6000000.0004
5999999.99901
6000000.00229
6000000.0017
5999999.99743
5999999.99951
6000000.00046
5999999.99906
5999999.99602
5999999.99667
5999999.99857
5999999.99475
6000000.00316
6000000.00215
6000000
6000000.00063
5999999.99873
6000000.00376
5999999.99801
6000000.00318
6000000.00194
5999999.99564
6000000.00444
6000000.00125
6000000.00052
6000000.00075
5999999.99799
6000000.00214
6000000.00061
5999999.99888
6000000.00162
6000000.0001
5999999.99891
5999999.99678
6000000.00507
5999999.99615
5999999.99965
6000000.00221
5999999.99638
6000000.00443
5999999.99527
6000000.00309
5999999.99887
5999999.99881
5999999.99711
6000000.00262
6000000.00627
5999999.9981
5999999.99799
6000000.00149
6000000.00291
5999999.99755
5999999.99684
6000000.00651
5999999.99768
5999999.99964
5999999.99941
6000000.00112
6000000.00342
5999999.99766
6000000.00503
5999999.9983
5999999.99863
6000000.00232
6000000.00026
5999999.9996
6000000.00373
6000000.00012
6000000.00336
5999999.99846
5999999.99935
5999999.99959
5999999.99762
5999999.99339
6000000.00314
6000000.00169
5999999.99833
5999999.99956
5999999.99845
6000000.00023
5999999.99777
6000000.00147
5999999.9983
6000000.00082
5999999.9992
6000000.00008
6000000.00046
5999999.99821
6000000.001
6000000.00039
5999999.99984
5999999.99989
5999999.99972
6000000.00017
6000000.00048
5999999.99967
6000000.00011
5999999.99982
6000000.00002
5999999.99981
5999999.99992
5999999.99969
5999999.99921
5999999.99995
6000000
5999999.99981
5999999.99998
6000000.00011
5999999.99997
5999999.99856
6000000.00252
5999999.99833
5999999.99924
5999999.99887
5999999.99935
6000000.00025
5999999.99991
6000000
5999999.99952
6000000.00188
6000000.00054
6000000.0001
6000000.00035
5999999.99922
5999999.99748
6000000.00278
6000000.00303
5999999.99826
5999999.99317
5999999.99324
6000000.00116
6000000.00696
6000000.0031
6000000.00382
5999999.99663
6000000.00461
5999999.99309
6000000.00122
5999999.99586
6000000.00034
5999999.99995
6000000.00369
5999999.99884
6000000.00215
5999999.99762
6000000.00197
5999999.99956
5999999.99997
6000000.00028
6000000.0004
5999999.9999
5999999.99938
6000000.00352
5999999.9994
5999999.99997
6000000.00002
5999999.99992
5999999.99989
5999999.99998
6000000.00078
5999999.99869
5999999.99863
5999999.99868
5999999.99939
5999999.99997
5999999.99854
5999999.99658
6000000.00197
6000000.00078
6000000.00094
6000000.0025
5999999.99712
5999999.99734
6000000.00757
6000000.00342
6000000.00144
6000000.00293
5999999.99702
5999999.99855
6000000.00115
5999999.99879
6000000.00107
6000000.00029
6000000.00061
6000000.00073
6000000.00278
5999999.99953
5999999.99722
6000000.00085
5999999.99975
5999999.99958
6000000.0045
5999999.99878
5999999.99778
6000000.00313
6000000.00165
6000000.0005
6000000.00117
5999999.99605
5999999.99722
6000000.00479
6000000.0062
6000000.00289
5999999.99609
5999999.99741
6000000.00365
6000000.00007
5999999.99766
5999999.99625
6000000.00485
6000000.0037
5999999.99964
6000000.00228
5999999.9974
6000000.00157
5999999.99948
6000000.00064
6000000.0009
6000000.0005
6000000.00131
5999999.99947
5999999.99908
6000000.00136
6000000.00122
5999999.99405
5999999.99404
6000000.00353
6000000.00042
5999999.99908
5999999.99829
6000000.00342
5999999.99699
6000000.00083
6000000.00138
6000000.00318
5999999.99337
6000000.00286
6000000.00163
6000000.00498
5999999.99559
5999999.99782
6000000.00165
6000000.00031
5999999.99481
5999999.99738
6000000.00577
6000000.00616
5999999.9997
6000000.0018
6000000.00125
6000000.00423
5999999.99716
6000000.0016
6000000.00188
5999999.99488
6000000.00337
6000000.00361
6000000.00558
6000000.00871
5999999.99536
5999999.99803
6000000.00388
6000000.00664
5999999.99448
5999999.99491
6000000.00281
5999999.99821
6000000.00001
6000000.00069
5999999.99568
6000000.00162
5999999.99663
6000000.00052
5999999.99544
5999999.99431
6000000.00442
6000000.00314
5999999.99835
6000000.00318
6000000.0012
5999999.99984
5999999.99994
5999999.99813
5999999.99694
6000000.00391
6000000.00757
5999999.99648
5999999.99847
5999999.99224
6000000.00467
6000000.00611
5999999.9955
5999999.99726
5999999.99579
5999999.99705
5999999.9964
6000000.00135
5999999.99897
6000000.00226
5999999.99856
5999999.9999
6000000.00376
5999999.99365
5999999.99465
5999999.99603
6000000.00706
6000000.00041
5999999.99817
6000000.0011
6000000.00028
6000000.00285
5999999.99886
6000000.00159
6000000.00603
5999999.99625
5999999.99419
5999999.99192
6000000.00323
6000000.00293
5999999.99213
5999999.99608
5999999.99681
6000000.00138
5999999.99872
5999999.99247
6000000.00384
6000000.00516
5999999.99991
6000000.00091
5999999.99983
6000000.00075
6000000.00107
6000000.0007
6000000.00011
5999999.99999
5999999.99991
5999999.99988
6000000.00015
6000000.00052
5999999.99795
6000000.0025
6000000.00735
5999999.99974
6000000.00114
6000000.00327
5999999.99924
6000000.00398
6000000.00134
5999999.99997
5999999.99986
5999999.99988
6000000.00152
5999999.99702
5999999.99694
6000000.00111
5999999.9956
6000000.0012
5999999.99842
5999999.99931
5999999.99896
5999999.99975
5999999.99965
6000000.00004
6000000.00058
5999999.99782
6000000.0038
5999999.99843
5999999.99887
5999999.99981
5999999.99803
6000000.00121
6000000.00135
6000000.00016
6000000.00053
5999999.99879
6000000.00414
5999999.99982
6000000.00002
6000000.00046
5999999.99964
6000000.00036
5999999.99732
6000000.00665
6000000.00374
5999999.99483
5999999.99839
6000000.00227
5999999.99806
6000000.00397
5999999.99864
5999999.99974
6000000.00009
5999999.99926
6000000.00041
5999999.9989
6000000.00066
5999999.99666
6000000.00196
6000000.00111
6000000.0012
5999999.99951
6000000.00004
5999999.99669
6000000.00685
6000000.0038
5999999.9939
6000000.00155
6000000.00322
6000000.00489
5999999.99552
5999999.99552
6000000.00486
5999999.99848
5999999.99926
6000000.00053
5999999.99995
5999999.99992
5999999.99996
6000000.00002
5999999.99989
5999999.99993
5999999.99986
6000000.00037
5999999.9983
6000000.00316
5999999.99697
5999999.99968
6000000.00138
5999999.99238
6000000.00507
6000000.00483
6000000.00161
5999999.99939
6000000.0029
6000000.00575
5999999.99612
5999999.99475
6000000.00267
5999999.99901
6000000.00327
6000000.00536
6000000.00055
6000000.00595
6000000.00012
5999999.99974
6000000.00081
6000000.0007
5999999.99985
6000000.00013
6000000.00376
5999999.99756
6000000.00073
6000000.00169
6000000.00319
6000000.00319
5999999.99452
6000000.00238
6000000.00071
6000000.00129
5999999.99909
6000000.00477
6000000.00394
5999999.99703
6000000.00335
6000000.00035
5999999.9992
6000000.00061
5999999.99958
6000000.00242
5999999.9933
6000000.0025
6000000.00137
6000000.00041
5999999.99857
6000000.00017
6000000.00161
5999999.99965
5999999.99997
6000000.00002
6000000
6000000.00004
5999999.99989
6000000.00001
5999999.9998
5999999.99986
6000000.00042
5999999.99877
6000000.00214
5999999.9995
5999999.9998
5999999.99962
6000000.00043
5999999.99799
6000000.00111
6000000.00064
6000000.00079
5999999.99702
5999999.99777
6000000.00113
6000000.00228
5999999.99811
6000000.00139
5999999.99797
6000000.00316
6000000.00302
6000000.00056
6000000.00033
5999999.99962
5999999.99903
6000000.00223
5999999.99526
6000000.00661
5999999.99684
5999999.99432
6000000.00358
6000000.00408
6000000.00522
5999999.99995
6000000.00026
5999999.99392
5999999.99554
5999999.99493
6000000.00206
5999999.99775
6000000.00516
5999999.99904
5999999.99711
6000000.00077
5999999.99697
6000000.00229
5999999.9981
6000000.00554
5999999.99278
5999999.99479
6000000.00395
5999999.99438
5999999.99663
5999999.99799
6000000.00235
6000000.00199
6000000.00119
6000000.00004
6000000.00103
6000000.00097
6000000.00279
5999999.99647
6000000.00224
6000000.00158
5999999.99969
5999999.99819
6000000.00006
6000000.00019
5999999.99855
5999999.99881
6000000.00167
5999999.99986
6000000.00176
6000000.0024
5999999.99689
5999999.99902
6000000.00514
5999999.9991
5999999.99968
5999999.99977
6000000
6000000
6000000.00015
5999999.99991
5999999.99976
6000000.00059
5999999.99996
5999999.99673
6000000.00117
5999999.99929
5999999.99986
5999999.99996
6000000.0005
5999999.99779
6000000.00407
6000000.00203
5999999.99513
6000000.00665
5999999.99392
5999999.99316
6000000.00263
6000000.00532
5999999.99163
5999999.99722
5999999.99678
5999999.99914
6000000.00123
5999999.99791
6000000.00146
5999999.99573
5999999.99672
6000000.00088
5999999.99695
6000000.00402
5999999.9977
6000000.00163
6000000.00302
5999999.99543
5999999.99445
5999999.99357
5999999.99931
6000000.00492
6000000.00244
5999999.996
5999999.99306
6000000.00406
6000000.00287
5999999.99333
5999999.99928
6000000.00579
6000000.0046
5999999.99804
5999999.99742
6000000.00522
5999999.99956
6000000.00002
6000000.00001
5999999.99969
6000000.00114
6000000.00156
5999999.9984
5999999.99779
5999999.99836
6000000.00074
6000000.00201
5999999.99936
6000000.00078
5999999.99806
5999999.99755
6000000.00168
6000000.00073
6000000.00037
6000000.00002
6000000.00007
5999999.99991
5999999.99984
6000000.00057
5999999.99881
5999999.99882
6000000.00018
6000000.00248
5999999.9979
5999999.99989
6000000.00026
5999999.99391
6000000.0003
6000000.00082
6000000.00521
6000000.00194
5999999.9991
6000000.00169
6000000.00048
5999999.99783
6000000.00311
5999999.996
6000000.00342
6000000.0005
6000000.00534
5999999.99902
5999999.99975
6000000.00594
6000000.00234
6000000.0042
6000000.00217
5999999.99617
5999999.99858
6000000.00361
5999999.99928
5999999.99779
5999999.99674
6000000.00309
5999999.99786
5999999.99868
5999999.99673
6000000.00023
6000000.0024
5999999.99814
5999999.99817
5999999.99881
5999999.99977
5999999.99984
6000000.00182
6000000.00077
6000000.00093
5999999.99885
6000000.00209
6000000.00159
5999999.99859
5999999.99971
6000000.00037
6000000.00002
6000000.00016
5999999.99985
6000000.00132
6000000.00118
5999999.99775
6000000.00336
6000000.00219
5999999.99599
6000000.00565
5999999.99452
5999999.99832
6000000.00262
6000000.00657
6000000.00301
6000000.00304
6000000.00182
5999999.99254
5999999.99703
5999999.99872
5999999.99893
6000000.00454
6000000.00472
5999999.99335
5999999.99711
5999999.99477
6000000.00588
6000000.00264
6000000.00308
5999999.99857
6000000.00111
6000000.00075
6000000.00218
5999999.99956
5999999.99906
5999999.99981
6000000.00003
5999999.99984
6000000.00095
5999999.99917
6000000.00138
5999999.99993
6000000.0002
5999999.99857
5999999.99545
6000000.00343
6000000.00131
5999999.99606
5999999.99437
6000000.00575
5999999.9978
5999999.99567
6000000.00168
6000000.00633
5999999.99526
6000000.00425
5999999.99871
5999999.99731
6000000.00616
5999999.99899
6000000.00014
5999999.99996
6000000
6000000.00007
6000000.00001
6000000.00007
6000000.00002
6000000.00007
6000000.0002
6000000.00025
6000000.00003
6000000.00022
5999999.99915
6000000.00131
6000000.00157
5999999.99426
6000000.00322
6000000.0051
5999999.99862
6000000.00183
6000000.00283
6000000.00248
5999999.9989
6000000.00021
5999999.99394
6000000.00139
5999999.99959
6000000.00122
6000000.00344
5999999.99901
5999999.99878
5999999.99937
5999999.99868
6000000.00033
5999999.99829
6000000.00127
6000000.00172
5999999.99814
5999999.99944
5999999.99866
6000000.0017
5999999.99959
5999999.99999
5999999.99952
5999999.99916
6000000.00099
5999999.99898
5999999.99809
6000000.00383
5999999.99593
6000000.00145
5999999.99871
5999999.99931
5999999.9999
5999999.9992
6000000.00201
5999999.99544
6000000.00198
5999999.99939
5999999.99907
6000000.00004
5999999.99935
5999999.99987
5999999.99939
6000000.00135
5999999.99827
5999999.9995
5999999.99995
5999999.99993
5999999.99992
5999999.99998
6000000.00009
5999999.99993
5999999.99964
6000000
5999999.99984
5999999.99983
6000000.00006
5999999.99919
6000000.00233
5999999.99939
6000000.00019
6000000.00015
6000000.00158
5999999.99785
6000000.00148
5999999.9958
6000000.00278
6000000.00182
6000000.00198
6000000.00238
5999999.99695
5999999.99887
5999999.99791
6000000.00284
5999999.99878
5999999.99812
6000000.00193
5999999.99803
5999999.99901
5999999.99952
5999999.99992
6000000.00473
6000000.00163
6000000.00331
5999999.9991
6000000.00034
6000000.00269
5999999.99491
6000000.00061
5999999.99644
6000000.00581
6000000.00195
5999999.99385
5999999.99561
5999999.99486
6000000.00612
6000000.0019
6000000.0059
5999999.99703
5999999.99818
6000000.00076
5999999.99485
5999999.99361
5999999.99691
5999999.99816
6000000.00264
5999999.99443
5999999.99682
5999999.9935
6000000.00085
5999999.99504
5999999.99811
5999999.99647
5999999.99637
5999999.99449
5999999.99488
6000000.00447
6000000.00164
6000000.00155
5999999.99343
6000000.00268
5999999.99942
6000000.00031
6000000.00154
5999999.99834
6000000.00044
5999999.99557
6000000.00348
5999999.99502
5999999.99504
6000000.00286
5999999.99471
5999999.9952
6000000.00595
5999999.99535
5999999.99353
6000000.00118
6000000.00216
5999999.99968
6000000.00165
6000000.00057
6000000.00047
5999999.99997
6000000.00074
5999999.99952
6000000.00075
5999999.99867
6000000.00047
6000000.00032
5999999.99992
5999999.99992
6000000.00027
6000000.002
6000000.00009
5999999.99949
6000000.00141
6000000.00025
5999999.99921
5999999.99949
5999999.99946
5999999.99908
6000000.0003
6000000.0001
6000000.00041
5999999.99941
5999999.99884
6000000.00072
6000000.00246
5999999.9979
6000000.00094
6000000.00351
6000000.00287
5999999.99635
5999999.99722
6000000.00378
5999999.99922
6000000.00173
6000000.00054
5999999.99646
6000000.00323
6000000.00288
5999999.99987
5999999.9988
6000000.00005
5999999.99841
6000000.00407
6000000.00023
6000000.00117
5999999.99861
5999999.99725
6000000.00712
6000000.00623
5999999.99331
5999999.99746
6000000.00182
6000000.00141
5999999.99886
6000000.00126
5999999.99992
6000000.00351
5999999.99917
6000000.00284
5999999.9996
5999999.99947
5999999.99988
6000000.00004
5999999.99996
5999999.99998
5999999.99998
6000000.00001
6000000.00004
6000000.00014
6000000
6000000
6000000.00001
5999999.99998
6000000.00019
6000000.00002
6000000.00002
5999999.99993
5999999.99995
6000000.00029
6000000.00035
5999999.99995
6000000.00014
5999999.99999
6000000.00001
5999999.99955
6000000.0003
5999999.99988
6000000.00042
5999999.99924
5999999.99914
5999999.99928
6000000.0008
5999999.99954
6000000.00326
5999999.99933
5999999.99968
5999999.99954
6000000.00018
6000000.00011
6000000.00013
5999999.9999
6000000.00001
6000000
6000000.0001
5999999.99889
6000000.00061
5999999.99882
6000000.00401
5999999.99935
5999999.99869
6000000.00149
5999999.9989
6000000.00424
6000000.00355
5999999.99848
5999999.99983
6000000.00622
6000000.00081
6000000.00071
6000000.0011
5999999.99967
6000000.00001
6000000.00007
6000000.00026
6000000.00008
6000000.00005
6000000.00045
5999999.99881
6000000.00142
6000000.00096
6000000.00061
6000000.00046
5999999.99895
6000000.00016
5999999.99992
6000000.00002
6000000.00025
6000000.0011
5999999.99915
5999999.99686
6000000.00214
5999999.99787
6000000.00236
5999999.99617
5999999.99903
5999999.99962
5999999.99652
5999999.99984
6000000.00475
5999999.99441
5999999.99338
6000000.00253
5999999.99275
5999999.99399
6000000.0009
5999999.99725
5999999.99824
5999999.99546
6000000.00246
6000000.00257
5999999.99644
6000000.00395
5999999.9979
5999999.99729
6000000.00272
6000000.00307
5999999.99943
5999999.99928
5999999.99954
6000000.00022
5999999.99963
5999999.99906
6000000.00207
5999999.99945
6000000.00225
5999999.9986
5999999.99797
6000000.00031
5999999.99886
5999999.99943
5999999.9982
5999999.99842
5999999.99853
5999999.99976
5999999.99847
6000000.00345
5999999.99941
5999999.99736
5999999.99983
5999999.99999
5999999.99996
5999999.99983
5999999.99983
6000000.00022
5999999.99998
5999999.99996
6000000.00014
6000000.00013
5999999.99998
6000000.00007
5999999.99998
6000000.00017
6000000.00099
6000000.00047
5999999.99751
5999999.99748
6000000.00161
6000000.00019
5999999.99998
5999999.99998
6000000.00006
5999999.99989
5999999.99962
6000000.00013
5999999.9998
5999999.99894
6000000.00071
5999999.99982
6000000.00173
5999999.99874
6000000.0003
6000000.00204
5999999.99946
6000000.00038
5999999.9991
5999999.9999
5999999.99991
6000000
5999999.99983
5999999.9999
6000000.00007
5999999.99917
5999999.99819
6000000.00009
5999999.99912
6000000.00233
5999999.99768
6000000.00148
6000000.00079
5999999.99974
6000000.0005
6000000.00159
5999999.99895
5999999.9963
6000000.00421
6000000.00018
6000000.00012
6000000.00083
6000000.00233
6000000.00028
5999999.99684
6000000.00478
6000000.00286
5999999.99952
5999999.99781
6000000.00217
6000000.00188
5999999.99898
6000000.00553
6000000.00032
6000000.00246
5999999.99702
5999999.99743
6000000.00139
5999999.99886
5999999.99961
5999999.99666
6000000.00375
6000000.00125
5999999.99847
6000000.00025
5999999.99834
6000000.00389
5999999.99827
6000000.00188
5999999.99389
6000000.00701
6000000.00531
5999999.99837
6000000.00133
5999999.99214
5999999.99204
6000000.0032
6000000.00233
6000000.00407
5999999.99742
5999999.99483
6000000.00419
5999999.99578
5999999.99891
5999999.99891
5999999.99772
6000000.00142
5999999.99872
6000000.00047
5999999.99991
5999999.99941
6000000.0005
5999999.9974
6000000.00255
5999999.99942
5999999.9985
6000000.00314
5999999.9977
6000000.00149
5999999.99585
6000000.00046
6000000.00001
5999999.99964
5999999.99848
5999999.99847
6000000.00164
6000000.00206
5999999.99907
6000000.00662
6000000.00257
5999999.99394
6000000.00325
5999999.99841
6000000.00683
6000000.00587
5999999.99745
5999999.99587
5999999.99879
6000000.0064
6000000.00191
5999999.9968
5999999.99524
5999999.99529
6000000.00289
5999999.99692
5999999.99443
5999999.99789
5999999.99488
6000000.00402
5999999.99736
5999999.99594
5999999.99863
6000000.0018
5999999.99705
5999999.99703
6000000.00121
6000000.0014
5999999.99603
5999999.99767
5999999.99529
5999999.99524
5999999.99709
5999999.99889
6000000.00107
5999999.99235
5999999.99373
6000000.0021
6000000.00063
5999999.99494
5999999.99526
5999999.99494
5999999.99345
6000000.00437
5999999.99657
5999999.99244
6000000.00039
5999999.99578
6000000.00267
6000000.00484
5999999.99267
5999999.99461
5999999.99764
6000000.00565
6000000.00065
5999999.9973
6000000.00303
6000000.00645
5999999.99976
6000000.00594
5999999.99634
5999999.99366
6000000.00363
6000000.00066
5999999.9995
5999999.99463
5999999.99636
6000000.0026
5999999.9962
5999999.99851
6000000.00208
5999999.99886
6000000.00304
6000000.00707
6000000.00316
5999999.99842
5999999.99527
5999999.99728
6000000.00568
6000000.00224
5999999.99564
5999999.99728
6000000.00083
6000000.00623
6000000.00093
5999999.99895
5999999.9997
6000000.00149
5999999.99864
5999999.99908
6000000.00335
6000000.00177
5999999.99693
6000000.00256
5999999.99674
5999999.99956
5999999.99736
6000000.00044
6000000.00246
5999999.99427
5999999.99996
6000000.00099
5999999.99422
5999999.99753
6000000.00294
5999999.99809
5999999.99814
6000000.00254
5999999.99846
5999999.99658
5999999.99565
5999999.99776
5999999.99591
5999999.99929
5999999.99793
6000000.00672
5999999.99772
6000000.00029
6000000.00528
5999999.99862
6000000.0014
5999999.99992
6000000.00831
5999999.99721
6000000.00092
6000000.00628
6000000.00678
5999999.99903
5999999.99821
6000000.00988
6000000.00772
6000000.00604
5999999.99803
5999999.99818
6000000.00794
6000000.00823
6000000.00183
6000000.00673
6000000.0023
5999999.99517
6000000.00683
6000000.00771
6000000.00013
5999999.99733
6000000.0074
6000000.00251
5999999.99418
6000000.00236
6000000.00214
6000000.00911
6000000.00753
5999999.99774
6000000.00238
6000000.00702
5999999.99614
5999999.99965
6000000.00641
6000000.00908
6000000.0006
6000000.00637
6000000.00542
6000000.0049
5999999.99802
6000000.00131
6000000.00837
6000000.00956
6000000.01005
6000000.00296
6000000.00304
6000000.00644
6000000.01022
5999999.99972
6000000.00299
6000000.00569
5999999.99668
6000000.00539
6000000.00516
6000000.00994
6000000.00423
6000000.00731
6000000.00563
5999999.99369
6000000.00684
6000000.00202
5999999.99872
6000000.00874
5999999.99873
5999999.99979
5999999.99852
6000000.00037
5999999.9983
5999999.99967
5999999.99901
5999999.99948
5999999.9993
5999999.99945
5999999.99715
5999999.99773
5999999.99953
5999999.99809
6000000.00025
5999999.9983
5999999.9987
5999999.99828
6000000.00011
5999999.99787
5999999.99749
5999999.99869
5999999.99961
5999999.99853
5999999.99869
5999999.99953
5999999.99752
5999999.99836
5999999.99927
5999999.99581
5999999.9985
6000000.00017
5999999.99922
5999999.99682
5999999.99935
5999999.9974
5999999.99997
5999999.99884
5999999.99866
5999999.99678
5999999.99891
6000000.0001
5999999.99781
5999999.99944
5999999.99958
5999999.99875
5999999.99879
5999999.99912
5999999.99657
5999999.99693
5999999.99941
5999999.99993
6000000.00025
6000000.00014
5999999.99829
5999999.99894
5999999.99786
5999999.99828
5999999.99824
5999999.99873
5999999.99957
6000000.00028
6000000.00211
5999999.99833
5999999.99937
5999999.99938
5999999.99989
5999999.99959
6000000.00078
5999999.99991
5999999.99956
6000000.00035
5999999.99986
5999999.99978
5999999.99982
5999999.9998
6000000.00052
6000000.00016
5999999.9998
5999999.99963
6000000.00028
6000000.00033
5999999.99976
6000000.00056
5999999.99989
6000000.00035
5999999.99995
5999999.99996
6000000.00024
6000000.00004
6000000.00037
5999999.99982
6000000.00011
5999999.9996
6000000.00031
6000000.0005
6000000.00019
6000000.00048
5999999.99999
6000000.00073
6000000.00052
5999999.99963
6000000.00042
5999999.99997
6000000.0003
6000000.00008
5999999.99955
6000000.00078
6000000.00036
6000000.00047
6000000.00029
5999999.99957
5999999.99992
5999999.99981
6000000.00011
5999999.99997
6000000.00029
6000000.00045
5999999.99977
6000000.00005
6000000.00028
6000000.00012
6000000.00036
6000000.00015
6000000.00019
6000000.00043
5999999.99972
6000000.00059
6000000.00078
6000000.00103
6000000.001
6000000.0011
6000000.00061
6000000.00102
6000000.00086
6000000.00123
6000000.00088
6000000.00084
6000000.00089
6000000.0009
6000000.00082
6000000.00084
6000000.00095
6000000.00097
6000000.00084
6000000.00099
6000000.00111
6000000.00092
6000000.00115
6000000.00124
6000000.00077
6000000.00101
6000000.00098
6000000.00093
6000000.00076
6000000.0006
6000000.00103
6000000.0009
6000000.00086
6000000.00089
6000000.00091
6000000.00119
6000000.00072
6000000.00098
6000000.00074
6000000.00089
6000000.00067
6000000.00085
6000000.001
6000000.00114
6000000.00101
6000000.00094
6000000.00097
6000000.00094
6000000.00076
6000000.00104
6000000.00121
6000000.00129
6000000.00073
6000000.00091
6000000.00089
6000000.00099
6000000.00097
6000000.00097
6000000.00096
6000000.00109
6000000.00105
6000000.00103
6000000.00092
6000000.00124
6000000.00138
6000000.00088
5999999.99898
5999999.99864
5999999.99873
5999999.99901
5999999.99868
5999999.99913
5999999.99879
5999999.99877
5999999.99867
5999999.99871
5999999.99888
5999999.99905
5999999.99901
5999999.99882
5999999.99867
5999999.99869
5999999.9988
5999999.99899
5999999.99888
5999999.99902
5999999.99879
5999999.99873
5999999.99915
5999999.99898
5999999.99865
5999999.99887
5999999.99934
5999999.99872
5999999.99895
5999999.99906
5999999.99902
5999999.99938
5999999.99904
5999999.99909
5999999.99887
5999999.99885
5999999.99909
5999999.99864
5999999.99854
5999999.99868
5999999.99908
5999999.99908
5999999.99889
5999999.99903
5999999.9989
5999999.99898
5999999.99921
5999999.999
5999999.99882
5999999.99892
5999999.99886
5999999.99865
5999999.99878
5999999.99861
5999999.99894
5999999.99887
5999999.99894
5999999.99899
5999999.99884
5999999.99882
5999999.99877
5999999.99904
5999999.99882
5999999.99887
5999999.99946
5999999.99938