/*--------------------------------*- C++ -*----------------------------------*\
  =========                 |
  \\      /  F ield         | OpenFOAM: The Open Source CFD Toolbox
   \\    /   O peration     | Website:  https://openfoam.org
    \\  /    A nd           | Version:  6
     \\/     M anipulation  |
\*---------------------------------------------------------------------------*/
FoamFile
{
    version     2.0;
    format      ascii;
    class       volVectorField;
    location    "5.06e-05";
    object      U;
}
// * * * * * * * * * * * * * * * * * * * * * * * * * * * * * * * * * * * * * //

dimensions      [0 1 -1 0 0 0 0];

internalField   nonuniform List<vector> 
8192
(
(-88.3219999999 0 -2.99256334265e-10)
(-88.3219999996 0 -1.07305954322e-10)
(-88.3220000002 0 -7.56123351408e-11)
(-88.3220000004 0 -3.42084249224e-10)
(-88.3219999994 0 -6.95587280956e-11)
(-88.3219999996 0 -1.63523710204e-11)
(-88.3220000003 0 -4.92923417181e-12)
(-88.3219999999 0 1.6510472621e-10)
(-88.322 0 -3.05098530639e-10)
(-88.322 0 -6.13253529237e-10)
(-88.3219999999 0 -7.89135742033e-10)
(-88.322 0 3.96609150041e-10)
(-88.3220000003 0 6.94249566958e-10)
(-88.3220000001 0 -8.33902156654e-10)
(-88.3219999998 0 -6.52768070255e-10)
(-88.3219999998 0 4.04862516505e-10)
(-88.3219999997 0 3.84347303519e-10)
(-88.3219999998 0 7.78112099444e-10)
(-88.3220000003 0 -4.41147319736e-10)
(-88.3219999999 0 -6.43257934541e-10)
(-88.3219999996 0 2.63379608537e-10)
(-88.3220000004 0 4.10275271293e-10)
(-88.3220000004 0 -7.02840630305e-10)
(-88.3219999997 0 -6.18302107485e-10)
(-88.322 0 2.09471655989e-10)
(-88.3219999998 0 2.22229331882e-10)
(-88.3219999998 0 2.83654319593e-10)
(-88.3219999999 0 2.33145554686e-10)
(-88.3220000002 0 3.63918233379e-10)
(-88.3220000002 0 -1.94334085584e-10)
(-88.322 0 2.49914648564e-10)
(-88.3219999995 0 -9.57250821662e-11)
(-88.3219999987 0 1.48750807891e-10)
(-88.3220000022 0 6.01535602899e-10)
(-88.3220000031 0 -9.70793077448e-10)
(-88.3219999985 0 -6.82765073165e-10)
(-88.3219999994 0 -4.87335350317e-12)
(-88.3219999996 0 -6.08524721275e-10)
(-88.3219999984 0 1.65412590373e-10)
(-88.3220000007 0 2.10494050018e-10)
(-88.3220000001 0 -9.23277882821e-11)
(-88.3219999997 0 9.1121171203e-11)
(-88.3220000002 0 -1.84939714485e-11)
(-88.322 0 -1.63304977907e-11)
(-88.322 0 -6.76899602623e-11)
(-88.322 0 -4.68140096272e-11)
(-88.322 0 -2.56552122428e-11)
(-88.3219999999 0 -2.09811778271e-11)
(-88.3220000001 0 3.93443550605e-11)
(-88.3219999997 0 -1.20465915701e-10)
(-88.3219999999 0 1.72009555681e-10)
(-88.3220000007 0 -9.68407608497e-11)
(-88.3219999993 0 -2.4397448838e-10)
(-88.3219999991 0 4.10646486421e-10)
(-88.3220000013 0 2.2842663065e-10)
(-88.3220000007 0 -1.94861835462e-10)
(-88.322 0 -2.11248090468e-11)
(-88.3219999998 0 -1.98588358062e-10)
(-88.3220000002 0 -5.53912437442e-11)
(-88.3219999991 0 -3.51640388354e-10)
(-88.3219999982 0 3.79534432118e-10)
(-88.3219999998 0 4.2654518931e-10)
(-88.3220000011 0 3.77484129341e-10)
(-88.3220000015 0 -7.92749428644e-11)
(-88.3220000001 0 -4.00492143399e-10)
(-88.3219999998 0 -1.02911376883e-10)
(-88.3220000002 0 1.74035351322e-10)
(-88.3219999995 0 2.86338314563e-11)
(-88.3219999999 0 3.3065256535e-10)
(-88.3220000003 0 -1.27339731083e-10)
(-88.3219999993 0 7.34420977461e-11)
(-88.3220000007 0 1.30016153005e-12)
(-88.3220000015 0 -1.19793701298e-11)
(-88.3220000009 0 -7.41856935557e-11)
(-88.3219999981 0 8.2051923724e-11)
(-88.321999997 0 -2.87096489825e-10)
(-88.3220000022 0 -2.89101609028e-11)
(-88.3220000026 0 -2.09687376759e-10)
(-88.3219999977 0 -3.56424722147e-10)
(-88.3219999981 0 3.61753986823e-10)
(-88.3219999995 0 2.78255298629e-10)
(-88.3220000019 0 1.51946877546e-10)
(-88.3220000026 0 -3.81653385847e-10)
(-88.3219999988 0 -2.14927467416e-10)
(-88.3219999983 0 -7.83050170532e-11)
(-88.3220000015 0 -4.56344634904e-11)
(-88.3220000017 0 2.34905314946e-10)
(-88.3219999985 0 -7.24930845489e-11)
(-88.3219999984 0 4.92335134013e-10)
(-88.322 0 -1.74301561605e-10)
(-88.3220000001 0 3.1391484585e-10)
(-88.3219999999 0 3.20030847007e-10)
(-88.3220000007 0 -1.1148777205e-10)
(-88.322 0 -2.56516525347e-11)
(-88.3219999998 0 1.06164786056e-10)
(-88.3220000006 0 3.99030579592e-11)
(-88.3219999997 0 -2.79586835384e-10)
(-88.3220000004 0 -5.05836207365e-10)
(-88.322 0 6.44543333694e-10)
(-88.3219999994 0 7.16645593434e-10)
(-88.3220000002 0 1.62364162455e-11)
(-88.322 0 3.21737161799e-10)
(-88.322 0 -1.60917799407e-10)
(-88.322 0 -2.74698314426e-10)
(-88.322 0 2.30444674745e-10)
(-88.3220000001 0 -1.21990959766e-10)
(-88.322 0 1.0607372816e-10)
(-88.322 0 -2.4864356126e-10)
(-88.322 0 -4.13033944572e-10)
(-88.322 0 -3.67267826272e-10)
(-88.322 0 -3.55986264197e-10)
(-88.322 0 -4.639100462e-10)
(-88.322 0 -4.05416831283e-10)
(-88.322 0 -5.8610543197e-11)
(-88.3220000001 0 3.24071611154e-10)
(-88.3220000001 0 -1.1099024351e-10)
(-88.3219999997 0 7.02373526262e-11)
(-88.322 0 -1.29128113746e-10)
(-88.3220000001 0 -3.32779486394e-10)
(-88.3219999999 0 4.26212286844e-10)
(-88.322 0 -2.13553563927e-10)
(-88.3220000002 0 -1.31157800592e-10)
(-88.322 0 -3.77059815275e-10)
(-88.3219999999 0 1.04457127015e-09)
(-88.322 0 3.86113564541e-10)
(-88.3220000002 0 -8.54528226731e-10)
(-88.3220000002 0 -1.19238973094e-09)
(-88.3220000001 0 -4.72342947531e-10)
(-88.3219999992 0 1.01862079473e-10)
(-88.3219999986 0 1.46455207727e-10)
(-88.322 0 -4.31056231801e-11)
(-88.3220000001 0 2.39456302291e-10)
(-88.3219999998 0 -2.07340795188e-10)
(-88.3220000001 0 1.83416031504e-10)
(-88.322 0 -6.07919604888e-11)
(-88.3220000001 0 -1.50550175957e-10)
(-88.3220000002 0 2.67759311533e-10)
(-88.3219999998 0 5.66558144989e-10)
(-88.3220000003 0 7.52019283432e-10)
(-88.3220000002 0 -2.51821866249e-10)
(-88.3220000001 0 -5.7411418827e-10)
(-88.3220000006 0 5.62771874787e-10)
(-88.3219999987 0 5.84524764675e-10)
(-88.3219999986 0 -4.33403529923e-10)
(-88.3220000002 0 -3.88280032867e-10)
(-88.3220000011 0 -6.83372846742e-10)
(-88.322000001 0 4.78413708371e-10)
(-88.3219999994 0 5.91578222182e-10)
(-88.3219999992 0 -2.17720390251e-10)
(-88.3219999998 0 -2.03908406692e-10)
(-88.3220000004 0 6.58671000899e-10)
(-88.3219999993 0 6.14198672023e-10)
(-88.3220000002 0 -1.09787460614e-10)
(-88.3220000001 0 -2.07695861074e-10)
(-88.3219999989 0 -1.11644825639e-10)
(-88.3220000008 0 1.41310194053e-10)
(-88.3220000009 0 -1.40951043033e-10)
(-88.3219999998 0 9.03568337485e-11)
(-88.3219999999 0 7.92457601469e-11)
(-88.3220000004 0 9.52176839079e-12)
(-88.322 0 -5.26237707101e-10)
(-88.322 0 5.03614769587e-10)
(-88.3220000002 0 7.13585107157e-10)
(-88.322 0 -5.03452841312e-10)
(-88.3220000003 0 -7.93789063128e-10)
(-88.322 0 9.18288359536e-10)
(-88.3219999997 0 4.77617464337e-10)
(-88.3219999999 0 -3.68082720029e-10)
(-88.3219999999 0 -5.04204097303e-10)
(-88.322 0 2.43644547459e-10)
(-88.3220000005 0 -3.1810694722e-10)
(-88.3220000012 0 -7.95166532554e-11)
(-88.3220000003 0 -4.07300239075e-10)
(-88.3219999998 0 6.54250744941e-11)
(-88.3220000001 0 -6.95986820461e-10)
(-88.3219999999 0 -6.16632903198e-10)
(-88.3219999993 0 6.07853721921e-10)
(-88.3219999984 0 3.03142105597e-11)
(-88.3220000001 0 -4.9596950618e-10)
(-88.3220000012 0 2.01660939226e-10)
(-88.3219999993 0 -4.92486434634e-10)
(-88.3219999999 0 4.67361439064e-10)
(-88.322 0 1.17424144063e-10)
(-88.3220000005 0 -3.80600734168e-10)
(-88.3220000012 0 -4.44816673695e-10)
(-88.3220000003 0 -4.70671088348e-10)
(-88.321999998 0 -1.74442844589e-10)
(-88.3219999976 0 -2.42620020203e-10)
(-88.3220000021 0 -1.80086995921e-10)
(-88.322000003 0 9.41882171322e-11)
(-88.3220000002 0 7.1790724169e-11)
(-88.3219999999 0 9.85759036393e-11)
(-88.322 0 7.13509427243e-10)
(-88.3220000001 0 2.15220382718e-10)
(-88.3220000001 0 -1.08788768081e-10)
(-88.3219999999 0 1.91998349574e-10)
(-88.322 0 -2.38159096943e-10)
(-88.322 0 5.56295514717e-11)
(-88.322 0 2.07881608463e-11)
(-88.322 0 4.21221261426e-11)
(-88.322 0 5.12771844856e-11)
(-88.322 0 1.11065582931e-10)
(-88.3219999997 0 -4.69414940507e-11)
(-88.3219999997 0 1.84168789158e-10)
(-88.3220000006 0 -2.51983044211e-11)
(-88.3220000002 0 4.99274945088e-10)
(-88.3219999997 0 3.95847896456e-10)
(-88.322 0 -3.59702334818e-10)
(-88.322 0 -2.6529213638e-10)
(-88.322 0 -3.49262784209e-10)
(-88.322 0 5.91453167861e-10)
(-88.322 0 5.09705124024e-10)
(-88.322 0 -5.68842464763e-10)
(-88.3219999998 0 -4.97742347453e-10)
(-88.322 0 3.49648256142e-10)
(-88.322 0 5.86589648133e-10)
(-88.322 0 -2.50852372524e-10)
(-88.322 0 6.34539440593e-10)
(-88.3219999994 0 -1.991693611e-10)
(-88.3219999999 0 7.87147725544e-11)
(-88.3220000008 0 -1.02257786046e-10)
(-88.3219999996 0 -3.32006576602e-10)
(-88.3219999998 0 1.34307855062e-10)
(-88.3220000017 0 -1.05860724646e-10)
(-88.3219999987 0 6.78362701637e-12)
(-88.321999998 0 -1.1042740664e-10)
(-88.322000002 0 5.26998368175e-11)
(-88.3220000024 0 1.05203159988e-10)
(-88.3219999974 0 -8.95962092709e-11)
(-88.3219999975 0 4.10211933305e-10)
(-88.3220000025 0 -4.73761432295e-11)
(-88.3220000019 0 4.82670684763e-11)
(-88.3219999987 0 -1.10216278255e-10)
(-88.3219999998 0 2.78274484976e-12)
(-88.3220000006 0 -1.2630526269e-10)
(-88.3220000002 0 2.50913849399e-10)
(-88.3219999997 0 4.45852068924e-10)
(-88.3220000006 0 3.66462700415e-10)
(-88.3220000013 0 3.91311419503e-10)
(-88.3219999974 0 3.11736085043e-10)
(-88.3219999989 0 5.83030335455e-10)
(-88.3220000021 0 1.94330589108e-10)
(-88.3219999998 0 -3.99886894815e-10)
(-88.3220000002 0 1.0843452675e-10)
(-88.3219999991 0 -2.56476692959e-10)
(-88.3219999988 0 2.25974218251e-10)
(-88.3220000017 0 6.4915976965e-10)
(-88.322000001 0 -6.01296382182e-10)
(-88.3220000002 0 -2.33092640362e-10)
(-88.3219999996 0 4.61840329176e-10)
(-88.3219999996 0 2.77809347036e-11)
(-88.3219999998 0 -5.54558613781e-10)
(-88.3219999994 0 -1.2212366936e-09)
(-88.3219999997 0 8.92885223754e-10)
(-88.3220000001 0 1.12012638263e-09)
(-88.322 0 8.77418180045e-10)
(-88.3220000006 0 -3.33917419052e-10)
(-88.3220000001 0 -1.74254805422e-10)
(-88.322 0 3.27979657501e-10)
(-88.3220000004 0 -4.73174503437e-11)
(-88.322 0 -7.95110104723e-11)
(-88.3219999996 0 -2.47595600396e-12)
(-88.322 0 -1.36764226791e-11)
(-88.322 0 5.70892411955e-11)
(-88.322 0 1.25399803341e-11)
(-88.322 0 -1.32335156289e-11)
(-88.3220000001 0 9.43314547546e-11)
(-88.3220000002 0 -3.33786506428e-10)
(-88.3219999995 0 -3.46025024352e-10)
(-88.3219999998 0 7.06298160992e-11)
(-88.3220000004 0 -3.18289748401e-11)
(-88.322 0 4.26140612988e-11)
(-88.3220000002 0 2.05383977958e-10)
(-88.3219999994 0 1.91536461304e-10)
(-88.3219999993 0 -3.74769860434e-11)
(-88.3220000017 0 -1.08773011591e-11)
(-88.3220000012 0 4.43748797718e-11)
(-88.3219999979 0 5.32895122148e-11)
(-88.3219999983 0 1.12967609113e-10)
(-88.3220000005 0 -1.27204393491e-10)
(-88.3220000001 0 1.6446806645e-10)
(-88.322 0 1.25743809959e-11)
(-88.3219999999 0 3.04468285617e-10)
(-88.3220000006 0 2.90354802762e-10)
(-88.3220000016 0 4.25332054365e-10)
(-88.3219999993 0 -4.46599115952e-11)
(-88.3219999994 0 1.48489102877e-10)
(-88.3220000005 0 4.49448158257e-10)
(-88.3220000001 0 -4.28514101974e-11)
(-88.322 0 -5.96857493995e-10)
(-88.3219999998 0 -8.26097265791e-10)
(-88.3220000002 0 2.83767844271e-10)
(-88.3219999997 0 1.00459369759e-09)
(-88.3219999999 0 -1.19621484883e-09)
(-88.3220000004 0 -2.98851176718e-10)
(-88.3219999999 0 1.15440163488e-10)
(-88.322 0 4.32328863111e-10)
(-88.322 0 -2.01024427007e-10)
(-88.322 0 2.57819377996e-10)
(-88.322 0 9.32548571124e-11)
(-88.322 0 3.64938142546e-10)
(-88.3219999999 0 -4.81429532183e-11)
(-88.3220000002 0 6.86632358626e-10)
(-88.3219999996 0 5.21783766543e-10)
(-88.3219999996 0 -5.19789294658e-10)
(-88.3220000004 0 -1.67605260393e-10)
(-88.3220000002 0 3.5999503115e-10)
(-88.3220000009 0 3.83933966388e-11)
(-88.3219999992 0 3.93631181494e-10)
(-88.3219999981 0 -5.13154982668e-10)
(-88.3220000016 0 -1.06704852499e-10)
(-88.3220000022 0 -2.6714308102e-10)
(-88.3219999991 0 2.54152604404e-10)
(-88.3219999998 0 1.07535447795e-10)
(-88.3219999998 0 -2.95644672303e-10)
(-88.3220000001 0 8.75955356242e-10)
(-88.3219999992 0 7.82745681854e-10)
(-88.3219999983 0 4.50304948095e-10)
(-88.3220000002 0 1.76551853238e-10)
(-88.3220000005 0 -5.30431102169e-11)
(-88.3220000003 0 -1.51463591569e-10)
(-88.3219999988 0 -2.80726627794e-10)
(-88.3219999999 0 5.14293535376e-10)
(-88.3220000007 0 7.00599012826e-10)
(-88.3219999999 0 2.5100106502e-11)
(-88.3219999999 0 4.5147595257e-10)
(-88.3219999999 0 3.14514533614e-10)
(-88.322 0 -4.98330781737e-10)
(-88.3220000001 0 3.18123681075e-11)
(-88.3219999998 0 1.03672307628e-10)
(-88.3220000003 0 -7.48492245911e-11)
(-88.3220000005 0 2.57823450333e-10)
(-88.3219999998 0 2.19344360718e-10)
(-88.3219999997 0 -6.53450901014e-10)
(-88.3219999998 0 5.40899647889e-10)
(-88.3219999996 0 4.56587397665e-10)
(-88.3219999997 0 6.0714025053e-10)
(-88.3220000005 0 1.18388593167e-10)
(-88.3220000004 0 -8.34338280686e-10)
(-88.3219999999 0 -2.79059203219e-10)
(-88.3219999997 0 9.9310470517e-10)
(-88.3219999998 0 1.18353674522e-09)
(-88.3220000004 0 -7.28428213749e-10)
(-88.3219999999 0 -6.87428276629e-10)
(-88.3219999998 0 -5.23659045751e-10)
(-88.3219999998 0 -1.62164851931e-10)
(-88.3219999989 0 1.32815932437e-10)
(-88.3219999997 0 -5.65092750473e-10)
(-88.3220000015 0 6.17932855274e-10)
(-88.3220000001 0 8.99620645527e-10)
(-88.3219999989 0 -1.88100539164e-10)
(-88.3220000022 0 -3.80761219394e-10)
(-88.3220000008 0 1.12764570817e-10)
(-88.3219999994 0 2.17921090743e-10)
(-88.3220000002 0 1.2965516638e-10)
(-88.3219999988 0 -1.59384862747e-10)
(-88.3220000004 0 -1.07581643735e-11)
(-88.322 0 -5.50510603004e-11)
(-88.3219999999 0 6.38984151002e-12)
(-88.3220000004 0 8.68959465109e-11)
(-88.3219999995 0 6.04631464498e-11)
(-88.3220000001 0 -3.74240143218e-11)
(-88.322 0 3.21396440696e-11)
(-88.322 0 1.77142035431e-11)
(-88.322 0 1.34528350794e-11)
(-88.322 0 3.05718562208e-12)
(-88.3220000002 0 -1.11289668011e-10)
(-88.3219999997 0 3.46419077467e-10)
(-88.3220000002 0 -2.71295889071e-10)
(-88.3220000003 0 -9.04926647749e-11)
(-88.3219999994 0 -3.48492612017e-11)
(-88.3220000002 0 1.82011035252e-10)
(-88.3220000002 0 3.3387600009e-10)
(-88.3219999998 0 -4.41271881946e-10)
(-88.3220000013 0 -5.44067883961e-10)
(-88.3220000001 0 3.08845468749e-10)
(-88.3219999995 0 4.39054299239e-10)
(-88.3220000008 0 6.37961451258e-11)
(-88.321999998 0 4.54232468249e-10)
(-88.3219999976 0 -1.03757977175e-10)
(-88.3220000002 0 5.80635019242e-10)
(-88.3220000009 0 -2.37930844583e-10)
(-88.3220000011 0 -8.61222092482e-11)
(-88.322000001 0 -2.88493632004e-10)
(-88.3220000005 0 5.63420263256e-10)
(-88.3219999988 0 2.19526494295e-11)
(-88.3219999981 0 -3.90501978476e-10)
(-88.3220000014 0 7.07693169248e-11)
(-88.3220000005 0 4.32319303811e-11)
(-88.3219999989 0 5.98705731147e-11)
(-88.322000002 0 -1.19377091919e-10)
(-88.3220000006 0 5.78408500429e-11)
(-88.3219999989 0 -2.10252155296e-10)
(-88.3220000003 0 -1.74064329006e-10)
(-88.3219999998 0 4.02023396799e-10)
(-88.3219999996 0 -3.87312314713e-10)
(-88.3220000014 0 -3.00861924021e-10)
(-88.3219999992 0 -5.98164235168e-11)
(-88.3219999982 0 -1.2466680667e-10)
(-88.3219999998 0 3.31529420289e-11)
(-88.3220000009 0 -3.3198830834e-10)
(-88.3220000023 0 -1.71616273299e-10)
(-88.3219999999 0 6.01714415972e-11)
(-88.3219999981 0 -7.53234808962e-12)
(-88.3219999983 0 -4.68875953051e-12)
(-88.3220000013 0 -4.93270874262e-11)
(-88.3220000021 0 4.40084115482e-12)
(-88.3220000001 0 -8.51241768856e-11)
(-88.321999999 0 -7.67503137749e-11)
(-88.3219999988 0 5.23445869763e-11)
(-88.3220000008 0 -4.04380095576e-10)
(-88.3219999996 0 -3.9517885042e-10)
(-88.3219999987 0 -6.72290704906e-10)
(-88.322000001 0 4.04484889273e-10)
(-88.322000002 0 -5.27218816389e-10)
(-88.322 0 -3.97534208625e-10)
(-88.3219999989 0 9.07323093939e-10)
(-88.3219999999 0 2.29049729156e-10)
(-88.3220000006 0 -1.17769374104e-10)
(-88.3220000005 0 -5.510764271e-10)
(-88.3219999995 0 -1.56499254183e-10)
(-88.3219999999 0 6.78779298461e-10)
(-88.3220000001 0 -2.54234518901e-10)
(-88.3219999998 0 -6.25854744344e-11)
(-88.3220000001 0 7.93413104208e-11)
(-88.322 0 1.12764879834e-10)
(-88.3219999999 0 -2.62960687526e-10)
(-88.322 0 8.65591512399e-11)
(-88.3220000001 0 5.66981205522e-11)
(-88.3220000002 0 1.84825314724e-11)
(-88.3219999995 0 -7.3232833946e-12)
(-88.322 0 -6.32749069044e-11)
(-88.3220000005 0 3.37151061181e-11)
(-88.3219999999 0 -5.81432250804e-11)
(-88.3219999997 0 1.60702551447e-10)
(-88.3220000002 0 -6.61892048455e-11)
(-88.3220000004 0 5.99398285407e-11)
(-88.3219999997 0 -6.11038522006e-11)
(-88.3220000001 0 5.39387753413e-11)
(-88.3220000003 0 3.13338761064e-10)
(-88.3219999996 0 -2.15798109742e-11)
(-88.3219999998 0 1.16787924198e-10)
(-88.3220000002 0 5.05593577008e-10)
(-88.3219999999 0 -5.69992534416e-10)
(-88.3219999996 0 -5.87579164804e-10)
(-88.3219999996 0 6.76564856832e-12)
(-88.3220000003 0 3.1307910591e-10)
(-88.3220000007 0 -1.02993425122e-10)
(-88.322 0 1.16088031044e-10)
(-88.3220000007 0 2.71508443467e-10)
(-88.3219999997 0 -4.74523764867e-10)
(-88.3219999998 0 -7.34567866721e-10)
(-88.3219999999 0 1.77477681802e-10)
(-88.3220000002 0 -4.50194361629e-10)
(-88.3219999999 0 -3.68167858221e-10)
(-88.3220000001 0 4.98392395049e-10)
(-88.3220000005 0 -6.26100343582e-11)
(-88.3219999985 0 -1.24689488838e-10)
(-88.3220000008 0 1.12296540505e-10)
(-88.322000002 0 -2.33295692292e-10)
(-88.3219999992 0 -9.64100635668e-11)
(-88.3219999993 0 4.37217201709e-10)
(-88.3219999995 0 -5.39534749846e-10)
(-88.322 0 -3.75149474011e-10)
(-88.322 0 -5.91442105959e-10)
(-88.3219999997 0 4.51256484449e-11)
(-88.3220000002 0 5.27314140365e-10)
(-88.322 0 1.64093751833e-11)
(-88.3219999998 0 -4.09426983596e-10)
(-88.3219999998 0 -8.13102585857e-10)
(-88.3220000005 0 2.59886220228e-10)
(-88.3219999999 0 1.80741327287e-10)
(-88.3219999995 0 3.04176784387e-10)
(-88.3220000005 0 -2.72805146818e-10)
(-88.3219999998 0 -3.36053400185e-10)
(-88.3220000002 0 1.02773680706e-10)
(-88.3219999999 0 -5.73521333779e-10)
(-88.322 0 -5.57622873184e-10)
(-88.3220000004 0 -8.53957495476e-11)
(-88.3219999993 0 4.38172322615e-10)
(-88.3219999996 0 -9.96480509449e-11)
(-88.3220000014 0 -1.19853566043e-10)
(-88.3220000018 0 -1.2942867397e-10)
(-88.3219999989 0 -6.03386725896e-11)
(-88.3219999979 0 2.71530182418e-10)
(-88.3220000002 0 -7.72543428674e-11)
(-88.3220000014 0 1.3232247473e-10)
(-88.3219999998 0 -4.38223738758e-11)
(-88.3219999991 0 -3.32832279429e-11)
(-88.3220000007 0 5.93112140917e-11)
(-88.322 0 -2.45536125238e-11)
(-88.3219999993 0 -1.54109113949e-11)
(-88.3220000002 0 -6.69140626724e-11)
(-88.3220000001 0 -2.04742102419e-11)
(-88.3220000003 0 5.8490340597e-11)
(-88.3219999997 0 -2.28636366431e-10)
(-88.3220000002 0 8.6723479596e-11)
(-88.322 0 1.60304428159e-10)
(-88.3219999994 0 -2.07620006953e-10)
(-88.3220000003 0 -2.78259340103e-10)
(-88.3220000001 0 1.76502709583e-10)
(-88.3219999998 0 6.95132056306e-10)
(-88.3220000006 0 6.58150490511e-10)
(-88.3220000003 0 -2.58139350774e-10)
(-88.3219999999 0 -4.37924226655e-10)
(-88.3219999998 0 -3.2035496119e-10)
(-88.3219999995 0 -5.05856482297e-10)
(-88.3219999998 0 1.94924451733e-10)
(-88.3219999991 0 -4.91222271123e-10)
(-88.3219999991 0 3.59192779807e-10)
(-88.3220000014 0 -2.3741310839e-10)
(-88.3220000005 0 1.79671535772e-10)
(-88.3220000003 0 -3.60963465097e-10)
(-88.322 0 5.9537105137e-11)
(-88.322 0 -6.65009418651e-11)
(-88.322 0 1.27360125892e-11)
(-88.322 0 -8.81323240511e-11)
(-88.3220000001 0 1.0239066757e-10)
(-88.3220000001 0 5.78413355731e-11)
(-88.322 0 -1.09158714808e-10)
(-88.3220000001 0 2.10062547941e-10)
(-88.3219999999 0 1.69978889589e-10)
(-88.322 0 -5.05704292196e-10)
(-88.322 0 6.00102698273e-10)
(-88.322 0 5.4601247317e-10)
(-88.3220000001 0 4.50753076195e-11)
(-88.3219999999 0 1.25559294932e-10)
(-88.322 0 -6.49897035126e-11)
(-88.322 0 1.09979831915e-10)
(-88.322 0 -5.39930635461e-12)
(-88.322 0 -7.1654038394e-12)
(-88.322 0 3.07879925319e-11)
(-88.322 0 -3.54200729037e-11)
(-88.322 0 1.41667878602e-11)
(-88.322 0 -3.31487778547e-11)
(-88.322 0 2.45912988889e-10)
(-88.322 0 -1.05335610465e-10)
(-88.322 0 -4.93539698034e-11)
(-88.322 0 1.31250432038e-10)
(-88.322 0 -2.13879102425e-11)
(-88.322 0 6.75564804816e-11)
(-88.322 0 -2.73653304663e-10)
(-88.322 0 6.44950063858e-11)
(-88.322 0 -1.39715631472e-10)
(-88.322 0 8.78484711397e-12)
(-88.322 0 1.74305782518e-10)
(-88.3220000004 0 -2.44645464113e-10)
(-88.3219999998 0 2.00606638615e-10)
(-88.3219999995 0 -2.48150530179e-10)
(-88.3220000001 0 -7.75813685274e-10)
(-88.322 0 2.21980233622e-10)
(-88.3220000001 0 3.63160966881e-10)
(-88.322 0 -6.76964717304e-11)
(-88.322 0 -1.07117822189e-10)
(-88.322 0 2.68924390844e-10)
(-88.3220000001 0 -1.27045069672e-10)
(-88.322 0 -4.65342709298e-11)
(-88.3219999999 0 -4.49707388102e-11)
(-88.322 0 -8.3755891704e-11)
(-88.3219999999 0 1.9210634617e-10)
(-88.3219999998 0 -7.72398479097e-13)
(-88.3220000004 0 2.57371720747e-10)
(-88.3220000005 0 -7.18534307816e-11)
(-88.3219999994 0 -9.55544099252e-11)
(-88.3219999985 0 -2.191134721e-10)
(-88.3219999988 0 8.37545420054e-11)
(-88.3220000021 0 1.49497541959e-10)
(-88.3220000025 0 -2.34348568962e-10)
(-88.3219999997 0 -1.19821998864e-10)
(-88.3219999999 0 -2.4091727359e-12)
(-88.3219999991 0 -1.52290924155e-10)
(-88.3219999998 0 9.01855130988e-11)
(-88.3219999992 0 7.0033925539e-11)
(-88.3219999991 0 -1.09515521216e-09)
(-88.3220000006 0 -1.03334284634e-09)
(-88.3220000001 0 -2.50461003834e-10)
(-88.3219999995 0 2.1052537863e-10)
(-88.3220000002 0 1.29452840486e-10)
(-88.3219999998 0 -2.12465942585e-10)
(-88.3219999999 0 -7.45615932992e-11)
(-88.3219999997 0 1.09461596453e-10)
(-88.3219999999 0 7.45983489707e-11)
(-88.3220000003 0 -1.77525146237e-10)
(-88.3219999999 0 -2.14927730422e-10)
(-88.322 0 -2.63149255602e-11)
(-88.322 0 -1.13205390661e-10)
(-88.322 0 3.69976904804e-11)
(-88.3219999999 0 -4.51690856142e-11)
(-88.3220000003 0 -3.04889028214e-11)
(-88.3220000001 0 -2.00279136074e-11)
(-88.3219999997 0 -3.90260450347e-11)
(-88.322 0 -5.15526421427e-11)
(-88.322 0 -5.53343550359e-11)
(-88.322 0 -2.70446016155e-12)
(-88.322 0 6.22609492451e-11)
(-88.322 0 -1.74682174753e-10)
(-88.3219999998 0 -7.8785509412e-11)
(-88.3219999998 0 6.04297629267e-10)
(-88.322 0 4.15089525891e-10)
(-88.3220000001 0 -5.07639917256e-10)
(-88.3220000001 0 -3.62385196978e-10)
(-88.322 0 -9.39467238206e-11)
(-88.3219999997 0 8.75599371048e-11)
(-88.3220000003 0 -2.15304392804e-10)
(-88.3220000004 0 1.66964563111e-10)
(-88.322 0 -1.62115764356e-10)
(-88.3220000002 0 -4.19207354689e-10)
(-88.3219999995 0 -3.53228077954e-10)
(-88.3219999989 0 3.60234536989e-10)
(-88.3220000018 0 -4.72386306772e-10)
(-88.3220000018 0 -5.02169036875e-10)
(-88.3219999989 0 -4.38770120473e-10)
(-88.3219999998 0 4.89110651903e-10)
(-88.3219999993 0 3.42088596319e-10)
(-88.321999999 0 -3.9998788171e-10)
(-88.3220000003 0 -2.39534517725e-10)
(-88.322 0 5.87794110907e-10)
(-88.322 0 1.49139934191e-10)
(-88.3220000001 0 -4.24958356163e-10)
(-88.322 0 -6.39435282237e-10)
(-88.322 0 2.41573266106e-10)
(-88.3220000002 0 -2.47000881507e-10)
(-88.3219999998 0 -1.22613447031e-10)
(-88.3219999995 0 -5.36066862694e-10)
(-88.322 0 4.20606086284e-10)
(-88.3220000002 0 -1.67454940336e-10)
(-88.322 0 7.98152320302e-11)
(-88.3220000007 0 3.96850161964e-10)
(-88.3219999998 0 -4.7907970714e-10)
(-88.3219999991 0 -1.10534715225e-09)
(-88.3220000012 0 -1.31888564291e-09)
(-88.3220000008 0 -5.04368611116e-10)
(-88.3219999994 0 1.14555739472e-09)
(-88.3219999998 0 6.5118253609e-10)
(-88.3219999992 0 -8.14695013704e-11)
(-88.3219999994 0 -8.25432134859e-10)
(-88.3220000015 0 8.62058329903e-10)
(-88.3220000013 0 -5.8234022804e-11)
(-88.3219999995 0 -2.06027225779e-10)
(-88.3219999993 0 -5.98145125942e-11)
(-88.322 0 1.12493445141e-10)
(-88.3220000009 0 4.19540586395e-11)
(-88.3220000004 0 3.55011766876e-10)
(-88.3219999994 0 -2.54982310973e-10)
(-88.3219999997 0 2.45743721298e-10)
(-88.3220000007 0 -2.90438076933e-10)
(-88.3220000005 0 3.11822848919e-10)
(-88.3219999997 0 3.39613135254e-10)
(-88.322 0 -2.78423333011e-10)
(-88.3219999998 0 -4.52825075304e-10)
(-88.322 0 -1.20009748783e-10)
(-88.3220000001 0 -5.07401813997e-10)
(-88.322 0 -4.66261867562e-10)
(-88.3220000001 0 -9.94069827524e-11)
(-88.322 0 6.87391503832e-11)
(-88.322 0 6.23887754217e-11)
(-88.3219999999 0 1.3803755685e-10)
(-88.3219999998 0 -4.17376387358e-10)
(-88.3220000004 0 -8.21124130459e-10)
(-88.3220000002 0 3.70093258919e-10)
(-88.3219999984 0 3.54632833229e-10)
(-88.321999999 0 8.35902562367e-10)
(-88.3220000023 0 -5.46007179573e-10)
(-88.3220000015 0 -5.55891128562e-10)
(-88.3219999992 0 3.51239336361e-10)
(-88.3219999992 0 3.31506276871e-10)
(-88.3220000002 0 3.27901751263e-10)
(-88.3219999999 0 1.01343057493e-10)
(-88.322 0 3.98942776535e-10)
(-88.3220000011 0 1.02084990363e-10)
(-88.3220000003 0 6.95379158812e-11)
(-88.3219999984 0 9.89050643988e-11)
(-88.3220000002 0 -1.61888070451e-10)
(-88.3220000016 0 -4.15913860764e-10)
(-88.3220000004 0 6.02029502861e-10)
(-88.3219999978 0 9.31463325304e-10)
(-88.321999998 0 6.11991384251e-10)
(-88.3220000017 0 8.1526649282e-10)
(-88.3220000012 0 -6.31676608384e-10)
(-88.3219999982 0 -7.6060349103e-11)
(-88.3219999992 0 6.62565723494e-11)
(-88.3220000021 0 -9.19521925612e-11)
(-88.3220000015 0 6.95592060042e-11)
(-88.3219999987 0 -1.34327330751e-10)
(-88.3219999992 0 6.73534851964e-11)
(-88.3220000006 0 -1.34275345239e-10)
(-88.3220000006 0 -3.40181340522e-10)
(-88.3219999988 0 2.76419885403e-10)
(-88.321999999 0 3.92725256845e-10)
(-88.3220000012 0 5.44635138684e-10)
(-88.3219999993 0 -3.71017787089e-10)
(-88.3220000005 0 -3.73889542516e-10)
(-88.3220000013 0 8.81929120291e-10)
(-88.3220000004 0 1.57643130786e-10)
(-88.322000001 0 1.29122149155e-10)
(-88.3219999977 0 3.74470165694e-10)
(-88.3219999974 0 5.96756734611e-10)
(-88.3220000023 0 7.59148064657e-10)
(-88.3220000019 0 -2.8340866634e-10)
(-88.3219999978 0 -5.22305426875e-10)
(-88.3219999977 0 -2.05088816901e-10)
(-88.3220000013 0 4.83072976082e-10)
(-88.3220000007 0 4.90450520958e-10)
(-88.3219999992 0 3.2581758969e-10)
(-88.322 0 -2.56678210739e-10)
(-88.3219999997 0 -2.47841968678e-10)
(-88.3220000004 0 1.75713017666e-10)
(-88.3220000001 0 -2.63218770165e-11)
(-88.3219999998 0 -9.97977467757e-11)
(-88.3219999998 0 -1.59107206748e-10)
(-88.3219999991 0 1.89873690198e-10)
(-88.3220000011 0 1.52626531853e-10)
(-88.3220000016 0 5.53748973725e-11)
(-88.3219999997 0 -5.00145539698e-11)
(-88.322 0 -4.51407894032e-10)
(-88.3220000005 0 -1.49953253927e-11)
(-88.3219999995 0 -1.15479431684e-10)
(-88.321999999 0 -1.44823575856e-10)
(-88.3219999994 0 1.02510421337e-10)
(-88.3219999999 0 -1.58175920486e-10)
(-88.3220000009 0 -1.30789110502e-11)
(-88.3220000019 0 -9.48110834118e-12)
(-88.3219999986 0 -7.36920725942e-11)
(-88.3219999977 0 2.10434578116e-10)
(-88.3219999989 0 -1.0382901843e-11)
(-88.3220000016 0 -4.04344200215e-10)
(-88.3220000028 0 -2.58758835374e-10)
(-88.3219999984 0 3.51214421886e-10)
(-88.3219999983 0 5.27343875985e-10)
(-88.322 0 8.71310346835e-11)
(-88.3220000001 0 -4.54595613979e-11)
(-88.3220000001 0 2.18879473829e-10)
(-88.3220000004 0 -1.13630729045e-10)
(-88.3220000006 0 1.76672981167e-10)
(-88.3220000002 0 4.29521575274e-10)
(-88.322 0 3.47778918185e-10)
(-88.3219999998 0 -3.44523782276e-10)
(-88.3220000005 0 5.82768019764e-10)
(-88.3219999992 0 2.51594462251e-10)
(-88.3219999987 0 7.08135161789e-10)
(-88.3220000001 0 -5.373436785e-10)
(-88.3220000018 0 -3.48553209763e-10)
(-88.3220000007 0 5.50304981527e-10)
(-88.321999999 0 1.78527096246e-10)
(-88.322 0 -6.09868124445e-10)
(-88.3220000001 0 -1.45195348874e-10)
(-88.3220000002 0 4.03704636306e-10)
(-88.3219999999 0 6.70102825734e-10)
(-88.3219999999 0 -4.49357116545e-10)
(-88.322000001 0 2.51842313652e-10)
(-88.3219999991 0 9.38259917185e-11)
(-88.321999998 0 5.59041098054e-10)
(-88.3219999995 0 -4.5686248214e-10)
(-88.3220000018 0 3.2219518681e-11)
(-88.3220000019 0 1.95111753101e-10)
(-88.3219999982 0 -6.98968444418e-10)
(-88.3219999988 0 1.2183419853e-10)
(-88.3220000006 0 8.86612399916e-10)
(-88.3220000007 0 8.37343128505e-10)
(-88.322 0 5.47439736339e-10)
(-88.3219999988 0 -4.56744557393e-10)
(-88.3220000014 0 -6.55285632247e-10)
(-88.3220000016 0 5.53294536557e-10)
(-88.3219999993 0 5.74759825728e-10)
(-88.3219999995 0 -4.73263467531e-10)
(-88.322 0 -5.64116317524e-10)
(-88.3219999999 0 1.52291727726e-10)
(-88.322 0 -1.80892753832e-10)
(-88.3220000001 0 -4.87745707913e-11)
(-88.322 0 1.60952897783e-10)
(-88.322 0 -2.90244681972e-10)
(-88.322 0 1.76828542034e-10)
(-88.322 0 -1.69251257559e-10)
(-88.322 0 1.47393896161e-10)
(-88.322 0 -2.75755506198e-10)
(-88.3219999999 0 -1.7992096454e-10)
(-88.3220000003 0 -2.54130260229e-10)
(-88.3220000007 0 1.4693172984e-11)
(-88.3219999999 0 4.24864750363e-10)
(-88.3219999994 0 1.94475048552e-10)
(-88.3220000002 0 -1.64988587667e-10)
(-88.3219999997 0 -3.39436889014e-10)
(-88.322 0 1.94161784653e-10)
(-88.3220000002 0 2.33411076475e-10)
(-88.3219999996 0 -3.21911608378e-10)
(-88.3219999999 0 4.81602005497e-10)
(-88.322 0 8.21053991292e-10)
(-88.3220000001 0 -3.44949608167e-10)
(-88.3219999996 0 -3.62080889323e-10)
(-88.3219999996 0 -8.71247297732e-10)
(-88.3220000007 0 4.42613723233e-10)
(-88.3219999999 0 5.02583071539e-10)
(-88.3219999998 0 -3.79493940122e-10)
(-88.3220000002 0 -3.40747822069e-10)
(-88.3219999999 0 -3.96430688333e-10)
(-88.322 0 -2.62888312662e-10)
(-88.322 0 -2.56360150279e-10)
(-88.322 0 -1.33028392174e-10)
(-88.322 0 1.44264459881e-10)
(-88.322 0 1.52076292235e-10)
(-88.3219999996 0 -1.68576469846e-10)
(-88.3220000004 0 4.40414649766e-10)
(-88.3220000003 0 -3.29093290934e-10)
(-88.3219999994 0 -8.54311630108e-10)
(-88.322 0 -6.58443683381e-10)
(-88.3219999997 0 -1.91735089076e-10)
(-88.3220000002 0 -2.50649312479e-12)
(-88.3220000006 0 -5.17971009922e-10)
(-88.3219999998 0 2.43585749375e-10)
(-88.322 0 4.20664734099e-10)
(-88.322 0 -3.90974126393e-10)
(-88.3220000004 0 1.00512963629e-10)
(-88.3220000002 0 -5.68355089074e-10)
(-88.3219999996 0 -4.93862971571e-10)
(-88.322 0 1.90286839985e-10)