/*--------------------------------*- C++ -*----------------------------------*\
  =========                 |
  \\      /  F ield         | OpenFOAM: The Open Source CFD Toolbox
   \\    /   O peration     | Website:  https://openfoam.org
    \\  /    A nd           | Version:  6
     \\/     M anipulation  |
\*---------------------------------------------------------------------------*/
FoamFile
{
    version     2.0;
    format      ascii;
    class       volScalarField;
    location    "4.98e-05";
    object      p;
}
// * * * * * * * * * * * * * * * * * * * * * * * * * * * * * * * * * * * * * //

dimensions      [1 -1 -2 0 0 0 0];

internalField   nonuniform List<scalar> 
8192
(
6000000.00082
5999999.99938
6000000.00026
6000000.00128
6000000.00517
5999999.99805
6000000.00202
5999999.9992
6000000.00068
5999999.99986
6000000.0002
5999999.99985
6000000.0006
6000000.0014
6000000.00079
6000000.0007
6000000.00054
5999999.99779
5999999.99897
6000000.00061
5999999.99863
5999999.99736
6000000.00169
5999999.99986
5999999.99945
5999999.99988
5999999.99772
5999999.99899
5999999.99823
5999999.9988
6000000.00023
6000000.00076
5999999.9964
5999999.99393
6000000.00774
6000000.00747
5999999.99914
6000000.00425
5999999.99972
5999999.99666
6000000.00442
5999999.99728
6000000.00042
5999999.99987
6000000.00061
6000000.00049
6000000.00026
5999999.99958
5999999.99929
6000000.00168
5999999.99656
6000000.00097
6000000.00341
5999999.99542
5999999.99589
6000000.00119
5999999.99999
6000000.00355
6000000.00016
6000000.0063
5999999.99649
5999999.99715
5999999.99702
6000000.00288
6000000.00098
6000000.0024
6000000.00015
6000000.00425
5999999.99526
6000000.00343
5999999.99854
5999999.99618
6000000.00245
6000000.00271
6000000.00679
5999999.99674
5999999.99463
6000000.00637
6000000.00243
5999999.99516
5999999.99449
5999999.99194
6000000.00317
6000000.00582
6000000.00012
5999999.99926
6000000.00637
6000000.00466
5999999.99713
5999999.99714
5999999.99817
5999999.99825
5999999.99681
6000000.00489
5999999.99656
6000000.00258
6000000.00164
5999999.99944
6000000.00375
5999999.9982
5999999.99971
5999999.99988
5999999.9997
6000000.00037
5999999.99867
6000000.00027
6000000.00012
6000000
5999999.99998
5999999.99998
6000000.00015
6000000.00042
5999999.99939
6000000.00074
5999999.99957
6000000.00176
6000000.00011
5999999.99843
6000000.00072
5999999.99883
5999999.99904
5999999.99868
6000000.00031
5999999.99852
6000000.00016
5999999.99951
6000000.00028
6000000.00033
6000000.00633
6000000.00057
5999999.99621
6000000.00073
5999999.99826
5999999.9996
5999999.99997
5999999.99951
6000000.00096
6000000.00087
5999999.99853
6000000.00364
6000000.00074
6000000.00318
6000000.00434
5999999.99668
5999999.99711
5999999.99802
6000000.00211
6000000.00229
5999999.99987
5999999.99993
5999999.99875
6000000.00071
5999999.99458
6000000.00015
5999999.99679
5999999.99682
6000000.00179
6000000.00162
5999999.99818
5999999.99912
5999999.99977
5999999.99968
6000000.00008
6000000.00046
5999999.99958
6000000.0023
6000000.00019
6000000.00115
5999999.99741
6000000.00063
5999999.99705
6000000.00349
6000000.00192
6000000.00273
6000000.00193
6000000.00411
6000000.00222
6000000.00006
5999999.99404
6000000.00318
6000000.00191
5999999.99772
6000000.00064
5999999.99784
6000000.00311
6000000.00049
6000000.00207
5999999.99252
5999999.99254
6000000.00187
6000000.00626
6000000.0042
5999999.99928
5999999.99905
6000000.00144
6000000.00061
5999999.99985
6000000.00001
5999999.99997
6000000.00001
6000000.00015
6000000.00013
5999999.99998
5999999.99723
5999999.99749
6000000.00321
5999999.99919
5999999.99997
6000000.00004
5999999.99998
6000000.00011
6000000.00031
6000000.00044
5999999.99953
5999999.99994
6000000.00017
5999999.99959
6000000.00061
5999999.99995
5999999.9948
6000000.00133
6000000.00195
5999999.99713
6000000.00094
6000000.00682
5999999.9941
5999999.99675
6000000.00528
6000000.00851
5999999.99187
5999999.99426
6000000.00127
6000000.00407
5999999.99526
6000000.00343
6000000.00046
6000000.0048
5999999.99825
6000000.00714
6000000.00357
5999999.99046
6000000.00055
6000000.00698
5999999.99868
6000000.00548
5999999.9933
5999999.99807
6000000.00121
6000000.00371
6000000.00408
6000000.00046
6000000.00242
6000000.00082
5999999.99901
5999999.9993
5999999.99929
5999999.99998
5999999.99869
6000000.00067
5999999.99772
6000000.00187
5999999.99809
5999999.99951
5999999.9992
5999999.99962
5999999.99986
5999999.99996
6000000.00156
6000000.00158
5999999.99617
6000000.00046
6000000.00213
5999999.99983
6000000.00315
5999999.99543
5999999.99668
6000000.00505
6000000.00052
5999999.99628
5999999.99449
5999999.99997
5999999.99357
5999999.99856
5999999.99465
6000000.00186
6000000.0061
5999999.99568
6000000.00065
5999999.99912
6000000.00147
5999999.99924
5999999.99933
6000000.00163
5999999.99772
6000000.00244
6000000.00031
6000000.00008
6000000.00019
6000000.00001
6000000.00001
6000000.00004
6000000.00037
5999999.99886
6000000.0015
5999999.99739
5999999.99961
5999999.99787
6000000.00223
6000000.00646
5999999.99874
5999999.99325
6000000.00343
6000000.00776
5999999.99749
6000000.00354
5999999.99821
6000000.00765
5999999.99629
5999999.99621
5999999.99605
6000000.00155
6000000.00283
5999999.99454
6000000.00212
6000000.00131
5999999.99972
6000000.0012
5999999.99793
6000000.00059
6000000.00073
5999999.99734
6000000.00256
6000000.00223
6000000.00093
6000000.00021
5999999.99975
5999999.9969
5999999.99714
6000000.00089
6000000.0012
5999999.99975
5999999.99813
5999999.99727
6000000.00064
5999999.99653
6000000.0008
5999999.99641
5999999.99427
5999999.99664
6000000.00373
5999999.99691
5999999.99635
6000000.00726
5999999.99871
6000000.00314
5999999.99977
5999999.996
6000000.0039
5999999.99484
6000000.00411
5999999.99997
5999999.99923
6000000.00152
5999999.9997
6000000.00126
6000000.00009
6000000.00115
6000000.00171
5999999.99785
6000000.00331
6000000.00163
5999999.99681
6000000.002
6000000.00039
6000000.00001
6000000.0039
5999999.99746
6000000.00432
6000000.00275
5999999.99405
5999999.99148
5999999.99518
5999999.99863
6000000.00148
6000000.00264
6000000.00347
5999999.99346
5999999.99133
6000000.00161
5999999.99579
5999999.99882
6000000.005
5999999.99811
5999999.99869
6000000.00259
5999999.99619
5999999.99795
6000000.00649
5999999.99606
5999999.99895
5999999.99444
6000000.00245
6000000.00522
5999999.99943
5999999.99801
5999999.99169
6000000.00482
5999999.99884
6000000.00503
5999999.99914
5999999.99628
6000000.00356
5999999.99482
5999999.99397
6000000.00044
6000000.0028
5999999.99822
5999999.99807
5999999.99778
6000000.00186
6000000.00185
5999999.9971
6000000.00222
5999999.99839
5999999.99942
6000000.00122
5999999.9989
5999999.99952
5999999.99989
6000000.00078
6000000.0014
5999999.9972
6000000.00186
6000000.00056
5999999.99956
5999999.99758
6000000.00198
6000000.00045
5999999.99898
6000000.00205
6000000.00158
5999999.99755
5999999.99948
6000000.00038
5999999.99915
5999999.99627
5999999.99676
5999999.99865
5999999.99503
6000000.00296
6000000.00209
6000000.0001
6000000.00059
5999999.99889
6000000.00352
5999999.99801
6000000.00313
6000000.002
5999999.99558
6000000.00451
6000000.00133
6000000.00049
6000000.00073
5999999.99808
6000000.00216
6000000.00043
5999999.9989
6000000.00147
6000000.0001
5999999.99914
5999999.99692
6000000.00504
5999999.99633
5999999.9996
6000000.00203
5999999.99657
6000000.00416
5999999.99556
6000000.00292
5999999.99898
5999999.99899
5999999.99707
6000000.00262
6000000.00627
5999999.9981
5999999.998
6000000.00133
6000000.00288
5999999.99777
5999999.99704
6000000.00655
5999999.99783
5999999.99968
5999999.99952
6000000.00096
6000000.00338
5999999.99763
6000000.00479
5999999.99837
5999999.99868
6000000.00214
6000000.0003
5999999.9996
6000000.00357
6000000.00027
6000000.0032
5999999.99858
5999999.99923
5999999.99955
5999999.99757
5999999.99382
6000000.00288
6000000.00151
5999999.99839
5999999.99956
5999999.99856
6000000.00019
5999999.99796
6000000.00129
5999999.99855
6000000.00065
5999999.99934
5999999.99998
6000000.00038
5999999.99813
6000000.00094
6000000.00031
5999999.99985
5999999.99989
5999999.99976
6000000.00019
6000000.00042
5999999.99972
6000000.00002
5999999.99982
6000000.00002
5999999.99981
5999999.99992
5999999.9997
5999999.99931
5999999.99996
6000000
5999999.99981
5999999.99998
6000000.00011
5999999.99994
5999999.99854
6000000.00257
5999999.99825
5999999.99928
5999999.99896
5999999.99929
6000000.00022
5999999.99991
6000000
5999999.99964
6000000.00168
6000000.0006
6000000.00011
6000000.00029
5999999.99929
5999999.99752
6000000.00273
6000000.00314
5999999.99832
5999999.99315
5999999.99314
6000000.00125
6000000.00675
6000000.00281
6000000.00391
5999999.99663
6000000.00462
5999999.99324
6000000.00112
5999999.99601
6000000.00038
5999999.99994
6000000.00345
5999999.99887
6000000.00205
5999999.99766
6000000.00186
5999999.99961
6000000
6000000.00026
6000000.00038
6000000.00005
5999999.99947
6000000.0033
5999999.99954
6000000
6000000.00002
5999999.99992
5999999.99989
6000000.00002
6000000.0007
5999999.99877
5999999.99874
5999999.99878
5999999.99933
5999999.99991
5999999.99855
5999999.99656
6000000.00189
6000000.00078
6000000.0009
6000000.0024
5999999.99735
5999999.9973
6000000.0076
6000000.00343
6000000.00149
6000000.00294
5999999.99709
5999999.99867
6000000.00116
5999999.999
6000000.00096
6000000.00022
6000000.00058
6000000.00064
6000000.00265
5999999.99947
5999999.99751
6000000.00065
5999999.9997
5999999.99964
6000000.00464
5999999.99901
5999999.99777
6000000.0031
6000000.00166
6000000.00046
6000000.00106
5999999.99626
5999999.99744
6000000.00483
6000000.00579
6000000.00282
5999999.99644
5999999.99754
6000000.00337
5999999.99996
5999999.99781
5999999.99655
6000000.00451
6000000.0034
5999999.9997
6000000.00209
5999999.99764
6000000.00148
5999999.99949
6000000.00065
6000000.00084
6000000.00049
6000000.00122
5999999.99945
5999999.99905
6000000.0014
6000000.00116
5999999.99394
5999999.99422
6000000.00354
6000000.00065
5999999.99921
5999999.99837
6000000.00325
5999999.99703
6000000.00083
6000000.00142
6000000.00307
5999999.99329
6000000.00286
6000000.00165
6000000.00497
5999999.99553
5999999.99778
6000000.00157
6000000.00043
5999999.99475
5999999.99759
6000000.00529
6000000.00602
5999999.99952
6000000.00178
6000000.00127
6000000.0043
5999999.9972
6000000.00153
6000000.00183
5999999.99514
6000000.00325
6000000.00355
6000000.00561
6000000.0087
5999999.99532
5999999.99798
6000000.00386
6000000.00671
5999999.99444
5999999.99487
6000000.00269
5999999.99802
6000000.00001
6000000.00069
5999999.99589
6000000.00175
5999999.99681
6000000.00052
5999999.99574
5999999.99415
6000000.00414
6000000.00328
5999999.99835
6000000.0032
6000000.00125
5999999.99999
5999999.99984
5999999.99835
5999999.99684
6000000.00388
6000000.0076
5999999.99649
5999999.9985
5999999.99228
6000000.00485
6000000.00615
5999999.99555
5999999.9973
5999999.99579
5999999.99716
5999999.9964
6000000.00117
5999999.99904
6000000.00211
5999999.99883
5999999.99983
6000000.00354
5999999.99401
5999999.99461
5999999.99613
6000000.00717
6000000.00032
5999999.99837
6000000.00103
6000000.00007
6000000.0028
5999999.99904
6000000.0016
6000000.00605
5999999.99623
5999999.99413
5999999.99223
6000000.00313
6000000.00286
5999999.99211
5999999.99632
5999999.99683
6000000.00139
5999999.99866
5999999.99279
6000000.00397
6000000.00485
5999999.99989
6000000.00092
5999999.99992
6000000.00072
6000000.00095
6000000.00059
6000000.00007
5999999.99999
5999999.99991
5999999.99988
6000000.00015
6000000.00043
5999999.99815
6000000.00228
6000000.00693
5999999.9999
6000000.00105
6000000.00307
5999999.99924
6000000.00374
6000000.00128
5999999.99991
5999999.99988
5999999.99988
6000000.00152
5999999.99724
5999999.99704
6000000.0011
5999999.99587
6000000.00116
5999999.99854
5999999.99942
5999999.9991
5999999.99982
5999999.99975
6000000.00004
6000000.00048
5999999.99786
6000000.0036
5999999.99854
5999999.99893
5999999.99991
5999999.99787
6000000.00112
6000000.00123
6000000.00013
6000000.00048
5999999.99885
6000000.00399
5999999.99984
6000000.00001
6000000.00054
5999999.99965
6000000.00048
5999999.99748
6000000.00624
6000000.00367
5999999.99462
5999999.99835
6000000.00227
5999999.99804
6000000.0037
5999999.99878
5999999.99983
6000000.00008
5999999.99941
6000000.00033
5999999.99906
6000000.00073
5999999.99684
6000000.00195
6000000.0011
6000000.00111
5999999.99959
6000000.0001
5999999.99677
6000000.007
6000000.0037
5999999.99381
6000000.0015
6000000.00314
6000000.00472
5999999.99577
5999999.99532
6000000.00447
5999999.99852
5999999.99934
6000000.00036
5999999.99997
5999999.99992
5999999.99996
6000000.00002
5999999.99989
5999999.99993
5999999.99987
6000000.00028
5999999.99829
6000000.00286
5999999.99713
5999999.99965
6000000.00132
5999999.99268
6000000.00517
6000000.00502
6000000.00169
5999999.99931
6000000.0031
6000000.00557
5999999.99634
5999999.99503
6000000.00288
5999999.99906
6000000.00332
6000000.00539
6000000.00057
6000000.00597
6000000.00009
5999999.99976
6000000.00085
6000000.00069
5999999.99983
6000000.00008
6000000.00368
5999999.99775
6000000.00067
6000000.00176
6000000.00323
6000000.00305
5999999.99447
6000000.00215
6000000.0007
6000000.00106
5999999.99905
6000000.00496
6000000.00372
5999999.99733
6000000.00312
6000000.00031
5999999.9992
6000000.00064
5999999.99946
6000000.00237
5999999.9933
6000000.00261
6000000.00148
6000000.00024
5999999.99865
6000000.00017
6000000.00142
5999999.9997
6000000
6000000.00002
6000000
6000000.00002
5999999.99989
6000000.00001
5999999.9998
5999999.9999
6000000.00035
5999999.99888
6000000.00189
5999999.99953
5999999.9998
5999999.99965
6000000.00034
5999999.99814
6000000.00091
6000000.00053
6000000.00071
5999999.99729
5999999.99789
6000000.00111
6000000.00206
5999999.9983
6000000.0012
5999999.99807
6000000.00307
6000000.0028
6000000.00053
6000000.00031
5999999.99963
5999999.99898
6000000.00227
5999999.99525
6000000.00662
5999999.99681
5999999.99441
6000000.00364
6000000.00425
6000000.00528
5999999.99994
6000000.00026
5999999.99427
5999999.99541
5999999.99512
6000000.00197
5999999.99774
6000000.00515
5999999.99911
5999999.99724
6000000.00074
5999999.99711
6000000.00218
5999999.99806
6000000.00533
5999999.99263
5999999.99505
6000000.00407
5999999.99463
5999999.99669
5999999.99807
6000000.00208
6000000.00186
6000000.00127
6000000.00002
6000000.00105
6000000.00082
6000000.00269
5999999.99639
6000000.00228
6000000.00143
5999999.99972
5999999.99817
6000000
6000000.0001
5999999.99837
5999999.99882
6000000.00154
5999999.99989
6000000.00167
6000000.0023
5999999.99709
5999999.99901
6000000.00489
5999999.99915
5999999.9997
5999999.99983
6000000.00001
6000000.00001
6000000.00014
6000000.00003
5999999.9998
6000000.00058
6000000.00008
5999999.9965
6000000.00108
5999999.99944
5999999.99985
5999999.99996
6000000.00048
5999999.9979
6000000.00378
6000000.00203
5999999.99513
6000000.00666
5999999.99389
5999999.99302
6000000.00267
6000000.00537
5999999.99147
5999999.99742
5999999.99697
5999999.99923
6000000.00135
5999999.99789
6000000.00136
5999999.99592
5999999.99688
6000000.00071
5999999.99719
6000000.0037
5999999.99796
6000000.00162
6000000.00303
5999999.99539
5999999.99487
5999999.99389
5999999.99929
6000000.0049
6000000.00228
5999999.99605
5999999.99304
6000000.00411
6000000.00289
5999999.9933
5999999.99916
6000000.00583
6000000.00457
5999999.99787
5999999.99762
6000000.00483
5999999.99969
6000000.00002
6000000.00001
5999999.9998
6000000.00103
6000000.00154
5999999.99844
5999999.99806
5999999.99846
6000000.00059
6000000.00186
5999999.99943
6000000.00075
5999999.99824
5999999.99767
6000000.00157
6000000.00063
6000000.00035
6000000.00002
6000000.00004
5999999.99991
5999999.99991
6000000.00047
5999999.99895
5999999.99878
6000000.00016
6000000.00251
5999999.9979
5999999.99989
6000000.00013
5999999.99419
6000000.00039
6000000.0007
6000000.00484
6000000.0018
5999999.99926
6000000.00156
6000000.00048
5999999.99784
6000000.00313
5999999.99626
6000000.00327
6000000.00063
6000000.00509
5999999.99905
5999999.99973
6000000.00595
6000000.00236
6000000.00393
6000000.00222
5999999.99626
5999999.99867
6000000.00321
5999999.99943
5999999.99756
5999999.99695
6000000.0028
5999999.99776
5999999.9988
5999999.99662
6000000.00029
6000000.00232
5999999.99824
5999999.99833
5999999.99881
5999999.99978
5999999.99986
6000000.00165
6000000.00065
6000000.0008
5999999.99892
6000000.00185
6000000.0016
5999999.9984
5999999.99979
6000000.0002
6000000.00002
6000000.00011
5999999.99993
6000000.0012
6000000.00116
5999999.99793
6000000.00307
6000000.0021
5999999.99615
6000000.00535
5999999.99474
5999999.99833
6000000.00263
6000000.00656
6000000.00302
6000000.00271
6000000.00179
5999999.99241
5999999.99712
5999999.99867
5999999.99899
6000000.00414
6000000.00478
5999999.99336
5999999.99698
5999999.99476
6000000.00593
6000000.00268
6000000.00312
5999999.99861
6000000.00102
6000000.00075
6000000.00205
5999999.99956
5999999.99908
5999999.99978
6000000.00003
5999999.99989
6000000.00091
5999999.99918
6000000.00126
5999999.99984
6000000.00012
5999999.99861
5999999.99576
6000000.00356
6000000.00123
5999999.99597
5999999.99455
6000000.00576
5999999.99802
5999999.9956
6000000.00169
6000000.00635
5999999.99522
6000000.00431
5999999.99874
5999999.99758
6000000.00617
5999999.99918
6000000.00015
5999999.99998
6000000
6000000.00007
6000000.00001
6000000.00007
6000000.00002
6000000.00007
6000000.0002
6000000.00025
6000000.00003
6000000.00019
5999999.99923
6000000.0012
6000000.00149
5999999.9946
6000000.00329
6000000.00508
5999999.99866
6000000.00181
6000000.00263
6000000.00234
5999999.99901
6000000.00026
5999999.99386
6000000.0013
5999999.99952
6000000.0013
6000000.00316
5999999.99901
5999999.99879
5999999.99942
5999999.99876
6000000.00028
5999999.99841
6000000.00124
6000000.0018
5999999.99824
5999999.99944
5999999.99864
6000000.0015
5999999.99964
5999999.99999
5999999.99968
5999999.99925
6000000.00091
5999999.99906
5999999.99805
6000000.00381
5999999.99615
6000000.00152
5999999.99883
5999999.99926
5999999.99989
5999999.9992
6000000.002
5999999.9954
6000000.00198
5999999.99939
5999999.99915
6000000.00004
5999999.99944
5999999.99987
5999999.9995
6000000.00121
5999999.99838
5999999.99949
5999999.99995
5999999.99993
5999999.99992
5999999.99998
6000000.00009
5999999.99993
5999999.99967
6000000
5999999.99987
5999999.9999
6000000.00002
5999999.9993
6000000.00206
5999999.99947
6000000.00016
6000000.00015
6000000.00149
5999999.99799
6000000.00152
5999999.99604
6000000.00269
6000000.00175
6000000.002
6000000.00236
5999999.99695
5999999.99909
5999999.99794
6000000.00265
5999999.9989
5999999.99806
6000000.00187
5999999.99813
5999999.99907
5999999.99958
6000000.00001
6000000.00447
6000000.0018
6000000.00333
5999999.99914
6000000.00034
6000000.00256
5999999.99498
6000000.00073
5999999.99645
6000000.00556
6000000.002
5999999.99398
5999999.99545
5999999.99504
6000000.00601
6000000.00188
6000000.00591
5999999.99701
5999999.99805
6000000.00077
5999999.99494
5999999.99392
5999999.99691
5999999.99819
6000000.00242
5999999.99466
5999999.99675
5999999.99347
6000000.00064
5999999.99507
5999999.99809
5999999.99657
5999999.99646
5999999.99488
5999999.99466
6000000.00424
6000000.00148
6000000.00143
5999999.99366
6000000.00252
5999999.99954
6000000.00027
6000000.00134
5999999.99849
6000000.00036
5999999.99576
6000000.0033
5999999.99486
5999999.99492
6000000.00263
5999999.99464
5999999.99517
6000000.00598
5999999.99535
5999999.99383
6000000.00107
6000000.00191
5999999.9996
6000000.00148
6000000.00063
6000000.00042
5999999.99997
6000000.0007
5999999.99952
6000000.00065
5999999.9989
6000000.00037
6000000.00023
5999999.99992
5999999.99993
6000000.00019
6000000.0018
5999999.99993
5999999.99963
6000000.00132
6000000.00016
5999999.99938
5999999.9996
5999999.99946
5999999.99906
6000000.00028
6000000.00005
6000000.00038
5999999.99948
5999999.999
6000000.00069
6000000.00226
5999999.99809
6000000.0009
6000000.00317
6000000.00274
5999999.99613
5999999.99737
6000000.00351
5999999.99928
6000000.00156
6000000.00053
5999999.99645
6000000.00307
6000000.00264
6000000
5999999.9987
6000000.00005
5999999.99833
6000000.00378
6000000.00027
6000000.00117
5999999.9987
5999999.99739
6000000.00666
6000000.00604
5999999.99321
5999999.99745
6000000.00181
6000000.0014
5999999.99884
6000000.00124
5999999.99995
6000000.00343
5999999.99917
6000000.00262
5999999.99968
5999999.9995
5999999.9999
6000000.00004
5999999.99996
5999999.99998
5999999.99998
6000000.00001
6000000.00004
6000000.00014
6000000
6000000
6000000.00001
5999999.99999
6000000.00019
5999999.99999
6000000.00001
5999999.99993
5999999.99996
6000000.00021
6000000.00029
5999999.99995
6000000.00014
5999999.99999
6000000
5999999.99962
6000000.0003
5999999.99993
6000000.00035
5999999.99934
5999999.99924
5999999.99927
6000000.00065
5999999.99961
6000000.003
5999999.99935
5999999.99968
5999999.99959
6000000.00018
6000000.00006
6000000.00013
5999999.99991
6000000.00001
6000000
6000000.00018
5999999.99896
6000000.00062
5999999.99887
6000000.00375
5999999.99937
5999999.99881
6000000.00149
5999999.99886
6000000.00399
6000000.00367
5999999.99857
5999999.99982
6000000.00625
6000000.00085
6000000.00069
6000000.00102
5999999.99967
6000000.00004
6000000.00007
6000000.00026
6000000.00008
6000000.00007
6000000.00035
5999999.99893
6000000.00133
6000000.00083
6000000.00053
6000000.00037
5999999.99919
6000000.00004
5999999.99992
6000000.00001
6000000.0001
6000000.00103
5999999.99898
5999999.99706
6000000.00234
5999999.99788
6000000.00221
5999999.99617
5999999.99904
5999999.99967
5999999.99679
5999999.9998
6000000.00436
5999999.99473
5999999.99365
6000000.00223
5999999.99307
5999999.99385
6000000.00099
5999999.99722
5999999.99844
5999999.99562
6000000.00244
6000000.00242
5999999.99658
6000000.00414
5999999.99794
5999999.99759
6000000.00247
6000000.00281
5999999.99951
5999999.99928
5999999.99961
6000000.00016
5999999.99981
5999999.9992
6000000.00193
5999999.99945
6000000.00212
5999999.99856
5999999.99808
6000000.00017
5999999.99886
5999999.99941
5999999.9982
5999999.9985
5999999.99862
5999999.99981
5999999.99855
6000000.00361
5999999.99946
5999999.99761
5999999.99981
5999999.99999
5999999.99996
5999999.99983
5999999.99983
6000000.00022
5999999.99998
5999999.99996
6000000.00014
6000000.00011
5999999.99998
6000000.00007
5999999.99998
6000000.00019
6000000.00081
6000000.00048
5999999.99757
5999999.99778
6000000.00136
6000000.00026
5999999.99998
5999999.99998
6000000.00003
5999999.99989
5999999.99964
6000000.00012
5999999.99996
5999999.99903
6000000.00071
5999999.99974
6000000.00152
5999999.99888
6000000.00026
6000000.00192
5999999.99945
6000000.00035
5999999.99928
5999999.99999
5999999.99991
6000000
5999999.99983
5999999.99991
6000000.00005
5999999.99927
5999999.99838
6000000.00015
5999999.99912
6000000.00236
5999999.99784
6000000.00126
6000000.00067
5999999.99985
6000000.00043
6000000.00142
5999999.99901
5999999.99617
6000000.00392
6000000.00018
6000000.00012
6000000.00079
6000000.00205
6000000.00034
5999999.99711
6000000.00448
6000000.00297
5999999.99967
5999999.99793
6000000.00213
6000000.00181
5999999.99889
6000000.00532
6000000.00031
6000000.00247
5999999.99695
5999999.9975
6000000.00132
5999999.99898
5999999.99968
5999999.99677
6000000.00396
6000000.00112
5999999.9986
6000000.0003
5999999.99837
6000000.00363
5999999.9983
6000000.00178
5999999.99426
6000000.00663
6000000.00507
5999999.99829
6000000.00119
5999999.99251
5999999.99225
6000000.00325
6000000.00239
6000000.00426
5999999.99772
5999999.99509
6000000.00422
5999999.99597
5999999.99886
5999999.99886
5999999.99792
6000000.00125
5999999.99893
6000000.00031
5999999.99985
5999999.99946
6000000.00043
5999999.9976
6000000.00231
5999999.99953
5999999.99873
6000000.00282
5999999.99786
6000000.00141
5999999.99599
6000000.00042
5999999.99999
5999999.99964
5999999.99845
5999999.99846
6000000.00157
6000000.00191
5999999.99912
6000000.00674
6000000.00256
5999999.99379
6000000.00314
5999999.99847
6000000.00685
6000000.00557
5999999.99742
5999999.99578
5999999.99879
6000000.00646
6000000.00195
5999999.99698
5999999.99558
5999999.99532
6000000.00289
5999999.99695
5999999.99462
5999999.998
5999999.99485
6000000.00402
5999999.99731
5999999.99627
5999999.99859
6000000.00177
5999999.99729
5999999.99725
6000000.00128
6000000.00133
5999999.99611
5999999.99763
5999999.99543
5999999.99547
5999999.99728
5999999.99873
6000000.00096
5999999.99264
5999999.99391
6000000.00194
6000000.00052
5999999.99516
5999999.9955
5999999.99499
5999999.99361
6000000.00435
5999999.99676
5999999.99241
6000000.00026
5999999.99588
6000000.00251
6000000.00491
5999999.99259
5999999.99458
5999999.99765
6000000.00555
6000000.00072
5999999.99752
6000000.00306
6000000.00606
5999999.99979
6000000.00599
5999999.99627
5999999.9936
6000000.00363
6000000.00069
5999999.99948
5999999.99464
5999999.9964
6000000.00265
5999999.99617
5999999.9984
6000000.00207
5999999.9989
6000000.00301
6000000.0071
6000000.00317
5999999.99842
5999999.99527
5999999.99729
6000000.00572
6000000.00222
5999999.99563
5999999.9973
6000000.00084
6000000.00621
6000000.00093
5999999.99893
5999999.99971
6000000.00149
5999999.99859
5999999.99907
6000000.00335
6000000.00176
5999999.99696
6000000.00263
5999999.99671
5999999.99961
5999999.99734
6000000.00046
6000000.00233
5999999.99422
6000000.00001
6000000.00104
5999999.99418
5999999.99754
6000000.00294
5999999.99811
5999999.99811
6000000.00254
5999999.99843
5999999.99659
5999999.99565
5999999.9979
5999999.9959
5999999.9993
5999999.99793
6000000.00675
5999999.9977
6000000.00028
6000000.00529
5999999.99862
6000000.0014
5999999.99997
6000000.00839
5999999.9972
6000000.00088
6000000.00631
6000000.00679
5999999.99901
5999999.99814
6000000.00993
6000000.00775
6000000.00606
5999999.99804
5999999.99812
6000000.00797
6000000.00829
6000000.00184
6000000.00672
6000000.00229
5999999.99515
6000000.0068
6000000.00779
6000000.00013
5999999.9973
6000000.00744
6000000.00254
5999999.99409
6000000.00243
6000000.00222
6000000.00908
6000000.00761
5999999.9977
6000000.00236
6000000.00707
5999999.99615
5999999.99956
6000000.00646
6000000.00913
6000000.00061
6000000.00635
6000000.00548
6000000.00486
5999999.99802
6000000.0013
6000000.00838
6000000.00954
6000000.01006
6000000.00301
6000000.00301
6000000.00644
6000000.01023
5999999.99971
6000000.00294
6000000.00571
5999999.99665
6000000.00555
6000000.0052
6000000.00989
6000000.00421
6000000.00737
6000000.00566
5999999.99364
6000000.00686
6000000.00207
5999999.99864
6000000.00876
5999999.99874
5999999.9998
5999999.99854
6000000.00037
5999999.99826
5999999.99957
5999999.99899
5999999.9995
5999999.99928
5999999.99945
5999999.99719
5999999.99773
5999999.99953
5999999.99814
6000000.00025
5999999.99828
5999999.99868
5999999.99827
6000000.00013
5999999.99791
5999999.99748
5999999.99864
5999999.99964
5999999.99853
5999999.99863
5999999.9996
5999999.99753
5999999.99843
5999999.99928
5999999.99587
5999999.99849
6000000.00019
5999999.99917
5999999.99678
5999999.99934
5999999.99738
5999999.99997
5999999.99885
5999999.99868
5999999.99677
5999999.99895
6000000.00006
5999999.99778
5999999.99944
5999999.99959
5999999.99872
5999999.99878
5999999.99911
5999999.99662
5999999.99689
5999999.99943
5999999.99994
6000000.0002
6000000.00028
5999999.99832
5999999.99895
5999999.99788
5999999.99831
5999999.99825
5999999.99871
5999999.99956
6000000.00036
6000000.0021
5999999.99831
5999999.99941
5999999.99945
5999999.99991
5999999.99967
6000000.00063
5999999.99986
5999999.99953
6000000.00028
5999999.99976
5999999.99976
5999999.99978
5999999.99982
6000000.00049
6000000.0001
5999999.99978
5999999.99964
6000000.00026
6000000.00033
5999999.99983
6000000.00042
5999999.99991
6000000.00035
5999999.99989
5999999.9999
6000000.00026
6000000.00002
6000000.0004
5999999.99981
6000000
5999999.99959
6000000.00031
6000000.00046
6000000.00025
6000000.00049
5999999.99995
6000000.00058
6000000.00052
5999999.99973
6000000.00039
5999999.99994
6000000.00029
6000000.00008
5999999.99962
6000000.00079
6000000.00018
6000000.00047
6000000.00029
5999999.99946
5999999.99983
5999999.99975
6000000.0001
6000000.00003
6000000.00034
6000000.00042
5999999.99975
6000000.00006
6000000.00023
6000000.00012
6000000.0002
6000000.00016
6000000.00017
6000000.00042
5999999.99978
6000000.00059
6000000.00074
6000000.00104
6000000.00098
6000000.00107
6000000.00062
6000000.00101
6000000.00087
6000000.00121
6000000.00084
6000000.0008
6000000.00088
6000000.00087
6000000.00082
6000000.00083
6000000.0009
6000000.00099
6000000.00081
6000000.001
6000000.0011
6000000.0009
6000000.00113
6000000.00123
6000000.00075
6000000.00099
6000000.00098
6000000.00092
6000000.00077
6000000.00059
6000000.00101
6000000.00087
6000000.00088
6000000.00084
6000000.00088
6000000.00117
6000000.00073
6000000.00094
6000000.00074
6000000.00086
6000000.00066
6000000.00085
6000000.00101
6000000.00109
6000000.00097
6000000.00093
6000000.00094
6000000.00093
6000000.00078
6000000.00104
6000000.00122
6000000.00127
6000000.00073
6000000.0009
6000000.00086
6000000.00096
6000000.00097
6000000.00095
6000000.00099
6000000.00106
6000000.00103
6000000.00104
6000000.00091
6000000.00124
6000000.00134
6000000.00085
5999999.999
5999999.99869
5999999.9988
5999999.99901
5999999.99871
5999999.99914
5999999.9988
5999999.99876
5999999.9987
5999999.99869
5999999.99887
5999999.999
5999999.99902
5999999.99881
5999999.99863
5999999.99873
5999999.99879
5999999.99898
5999999.99886
5999999.99901
5999999.9988
5999999.99877
5999999.99913
5999999.99897
5999999.99872
5999999.99889
5999999.99934
5999999.99874
5999999.99895
5999999.99909
5999999.99902
5999999.99939
5999999.99905
5999999.99909
5999999.99887
5999999.99884
5999999.9991
5999999.99866
5999999.99857
5999999.9987
5999999.99904
5999999.99909
5999999.99889
5999999.99902
5999999.99895
5999999.99897
5999999.99922
5999999.99901
5999999.9988
5999999.99895
5999999.99886
5999999.99867
5999999.99879
5999999.99862
5999999.99894
5999999.99886
5999999.99895
5999999.99901
5999999.99884
5999999.99885
5999999.99878
5999999.99905
5999999.99881
5999999.99886
5999999.99946
5999999.9993
5999999.99952
5999999.99977