/*--------------------------------*- C++ -*----------------------------------*\
  =========                 |
  \\      /  F ield         | OpenFOAM: The Open Source CFD Toolbox
   \\    /   O peration     | Website:  https://openfoam.org
    \\  /    A nd           | Version:  6
     \\/     M anipulation  |
\*---------------------------------------------------------------------------*/
FoamFile
{
    version     2.0;
    format      ascii;
    class       volVectorField;
    location    "4.98e-05";
    object      U;
}
// * * * * * * * * * * * * * * * * * * * * * * * * * * * * * * * * * * * * * //

dimensions      [0 1 -1 0 0 0 0];

internalField   nonuniform List<vector> 
8192
(
(-88.3219999999 0 -2.92815324364e-10)
(-88.3219999996 0 -9.85138199266e-11)
(-88.3220000002 0 -7.34514909677e-11)
(-88.3220000004 0 -3.19433283439e-10)
(-88.3219999994 0 -6.73464094406e-11)
(-88.3219999996 0 -7.91559533374e-12)
(-88.3220000003 0 -3.51366183008e-12)
(-88.3219999999 0 1.45956948917e-10)
(-88.322 0 -2.92604105176e-10)
(-88.322 0 -6.02010632867e-10)
(-88.3219999999 0 -7.67507915698e-10)
(-88.322 0 3.8760565889e-10)
(-88.3220000002 0 6.85102642093e-10)
(-88.3220000001 0 -8.0958287277e-10)
(-88.3219999998 0 -6.43602643207e-10)
(-88.3219999999 0 3.90848126695e-10)
(-88.3219999998 0 3.58618368596e-10)
(-88.3219999998 0 7.40458332324e-10)
(-88.3220000003 0 -4.35508874701e-10)
(-88.3219999999 0 -6.2131250888e-10)
(-88.3219999996 0 2.63368957453e-10)
(-88.3220000004 0 4.03126435137e-10)
(-88.3220000004 0 -6.7366326143e-10)
(-88.3219999998 0 -6.03468688255e-10)
(-88.322 0 1.96477053589e-10)
(-88.3219999998 0 2.08796197097e-10)
(-88.3219999999 0 2.64369001661e-10)
(-88.3219999999 0 2.19236090306e-10)
(-88.3220000002 0 3.46432096922e-10)
(-88.3220000002 0 -1.82839402661e-10)
(-88.322 0 2.39042588685e-10)
(-88.3219999995 0 -8.18596991299e-11)
(-88.3219999988 0 1.41381718956e-10)
(-88.3220000021 0 5.84640000082e-10)
(-88.3220000029 0 -9.32363010025e-10)
(-88.3219999986 0 -6.67343801255e-10)
(-88.3219999994 0 -7.32969888572e-12)
(-88.3219999996 0 -5.9489099919e-10)
(-88.3219999985 0 1.67437426527e-10)
(-88.3220000007 0 1.98886468055e-10)
(-88.3220000001 0 -8.09984412841e-11)
(-88.3219999997 0 8.14248565859e-11)
(-88.3220000002 0 -1.68613083905e-11)
(-88.322 0 -1.59352727234e-11)
(-88.322 0 -6.3891568842e-11)
(-88.322 0 -4.3591405182e-11)
(-88.322 0 -2.31545056781e-11)
(-88.3219999999 0 -2.04328410925e-11)
(-88.3220000001 0 3.60875965766e-11)
(-88.3219999998 0 -1.11947337867e-10)
(-88.3219999999 0 1.56495299653e-10)
(-88.3220000007 0 -8.37076889053e-11)
(-88.3219999993 0 -2.32595449906e-10)
(-88.3219999992 0 3.88223322186e-10)
(-88.3220000013 0 2.14377481583e-10)
(-88.3220000007 0 -1.99923642809e-10)
(-88.322 0 -2.48549198653e-11)
(-88.3219999998 0 -1.90202524186e-10)
(-88.3220000002 0 -5.04326415817e-11)
(-88.3219999991 0 -3.37167321737e-10)
(-88.3219999982 0 3.66891943279e-10)
(-88.3219999998 0 4.15537434748e-10)
(-88.322000001 0 3.72716723327e-10)
(-88.3220000014 0 -6.21713837895e-11)
(-88.3220000001 0 -3.78406393975e-10)
(-88.3219999998 0 -9.86538894622e-11)
(-88.3220000002 0 1.58353280247e-10)
(-88.3219999996 0 2.37198575176e-11)
(-88.3219999999 0 3.04068115763e-10)
(-88.3220000002 0 -1.25469838815e-10)
(-88.3219999994 0 6.53559958727e-11)
(-88.3220000006 0 2.63610117859e-12)
(-88.3220000014 0 -1.08453636221e-11)
(-88.3220000009 0 -7.05504340738e-11)
(-88.3219999981 0 7.82549711113e-11)
(-88.321999997 0 -2.73884068226e-10)
(-88.3220000021 0 -2.75441385181e-11)
(-88.3220000026 0 -2.01689080955e-10)
(-88.3219999978 0 -3.43236636244e-10)
(-88.3219999981 0 3.44914596828e-10)
(-88.3219999995 0 2.64136670284e-10)
(-88.3220000018 0 1.52065179709e-10)
(-88.3220000025 0 -3.68345625594e-10)
(-88.3219999988 0 -2.082192152e-10)
(-88.3219999983 0 -7.22950891899e-11)
(-88.3220000015 0 -3.64155168064e-11)
(-88.3220000017 0 2.260962363e-10)
(-88.3219999986 0 -7.1517008502e-11)
(-88.3219999984 0 4.76816502567e-10)
(-88.322 0 -1.81571123623e-10)
(-88.3220000001 0 3.13758931657e-10)
(-88.3219999999 0 3.13760894761e-10)
(-88.3220000006 0 -9.87500416621e-11)
(-88.322 0 -1.23146261948e-11)
(-88.3219999998 0 9.61504941329e-11)
(-88.3220000005 0 3.42261146132e-11)
(-88.3219999998 0 -2.64964563265e-10)
(-88.3220000003 0 -4.92560779094e-10)
(-88.322 0 6.19408272594e-10)
(-88.3219999995 0 6.93511984469e-10)
(-88.3220000002 0 1.26771496737e-11)
(-88.322 0 3.17525752982e-10)
(-88.322 0 -1.64019917744e-10)
(-88.322 0 -2.56998428848e-10)
(-88.322 0 2.04825903708e-10)
(-88.3220000001 0 -1.11042118743e-10)
(-88.322 0 9.42134607529e-11)
(-88.322 0 -2.33167771362e-10)
(-88.322 0 -4.09099690886e-10)
(-88.322 0 -3.58970928449e-10)
(-88.322 0 -3.48210659359e-10)
(-88.322 0 -4.43880841515e-10)
(-88.322 0 -3.96103649961e-10)
(-88.322 0 -6.78990231699e-11)
(-88.322 0 3.19774416019e-10)
(-88.3220000001 0 -1.05410419284e-10)
(-88.3219999997 0 6.71290565757e-11)
(-88.322 0 -1.21543153095e-10)
(-88.3220000001 0 -3.17656088578e-10)
(-88.3219999999 0 4.22667228618e-10)
(-88.322 0 -2.02305422232e-10)
(-88.3220000002 0 -1.43258532383e-10)
(-88.322 0 -3.79965876328e-10)
(-88.3219999999 0 9.95101956999e-10)
(-88.322 0 3.71556230205e-10)
(-88.3220000001 0 -8.39183928857e-10)
(-88.3220000002 0 -1.16378377804e-09)
(-88.322 0 -4.65580776318e-10)
(-88.3219999993 0 9.32237401699e-11)
(-88.3219999986 0 1.31933028225e-10)
(-88.322 0 -3.95743320871e-11)
(-88.3220000001 0 2.26700531257e-10)
(-88.3219999998 0 -1.92092827259e-10)
(-88.3220000001 0 1.71678322083e-10)
(-88.322 0 -5.52475758274e-11)
(-88.3220000001 0 -1.35205940468e-10)
(-88.3220000002 0 2.58448639348e-10)
(-88.3219999998 0 5.57964085651e-10)
(-88.3220000003 0 7.28809797575e-10)
(-88.3220000002 0 -2.54829587635e-10)
(-88.322 0 -5.72539408034e-10)
(-88.3220000006 0 5.57112204743e-10)
(-88.3219999987 0 5.77195831535e-10)
(-88.3219999986 0 -4.1673514997e-10)
(-88.3220000002 0 -3.63413320546e-10)
(-88.3220000011 0 -6.55430470423e-10)
(-88.322000001 0 4.71547313133e-10)
(-88.3219999994 0 5.72414909146e-10)
(-88.3219999992 0 -2.19254941016e-10)
(-88.3219999998 0 -2.07558346124e-10)
(-88.3220000004 0 6.33407022309e-10)
(-88.3219999993 0 5.99882078429e-10)
(-88.3220000002 0 -1.03230936209e-10)
(-88.3220000001 0 -1.9399188926e-10)
(-88.3219999989 0 -1.05290390854e-10)
(-88.3220000008 0 1.26517047201e-10)
(-88.3220000008 0 -1.21433816492e-10)
(-88.3219999998 0 7.89851926473e-11)
(-88.3219999999 0 8.23418099212e-11)
(-88.3220000004 0 4.06785353205e-12)
(-88.322 0 -5.11981431791e-10)
(-88.322 0 4.87672472578e-10)
(-88.3220000002 0 6.90686372956e-10)
(-88.322 0 -4.77029159903e-10)
(-88.3220000003 0 -7.67857478249e-10)
(-88.322 0 8.94252285418e-10)
(-88.3219999997 0 4.57205968695e-10)
(-88.3219999999 0 -3.68009480527e-10)
(-88.3219999999 0 -4.86300779275e-10)
(-88.322 0 2.28618690873e-10)
(-88.3220000005 0 -3.07581033585e-10)
(-88.3220000011 0 -7.49356331593e-11)
(-88.3220000003 0 -3.91121288623e-10)
(-88.3219999998 0 6.46755823138e-11)
(-88.3220000001 0 -6.71219387682e-10)
(-88.3219999999 0 -6.11205814918e-10)
(-88.3219999993 0 5.78071016759e-10)
(-88.3219999984 0 2.84249638904e-11)
(-88.322 0 -4.68090312301e-10)
(-88.3220000012 0 1.9518713063e-10)
(-88.3219999994 0 -4.79856465135e-10)
(-88.3219999999 0 4.51353944476e-10)
(-88.322 0 1.04523679759e-10)
(-88.3220000005 0 -3.71408283601e-10)
(-88.3220000012 0 -4.23471129256e-10)
(-88.3220000003 0 -4.50046265131e-10)
(-88.321999998 0 -1.72997136065e-10)
(-88.3219999977 0 -2.27319180387e-10)
(-88.322000002 0 -1.73778725932e-10)
(-88.3220000029 0 9.1693017854e-11)
(-88.3220000002 0 6.76267680265e-11)
(-88.3219999999 0 9.33188688187e-11)
(-88.322 0 6.90472204831e-10)
(-88.3220000001 0 2.08069196445e-10)
(-88.322 0 -9.06315776949e-11)
(-88.3219999999 0 1.82480647969e-10)
(-88.322 0 -2.25787702858e-10)
(-88.322 0 5.01446565868e-11)
(-88.322 0 1.84924029789e-11)
(-88.322 0 4.10226412087e-11)
(-88.322 0 4.41030785524e-11)
(-88.322 0 1.06487166914e-10)
(-88.3219999997 0 -4.29906645891e-11)
(-88.3219999997 0 1.80382590474e-10)
(-88.3220000006 0 -2.23409044096e-11)
(-88.3220000002 0 4.69013336551e-10)
(-88.3219999997 0 3.82687339832e-10)
(-88.322 0 -3.39269455334e-10)
(-88.322 0 -2.52318273083e-10)
(-88.322 0 -3.32133124216e-10)
(-88.322 0 5.66933605307e-10)
(-88.322 0 4.91526091836e-10)
(-88.322 0 -5.52324077228e-10)
(-88.3219999998 0 -5.01708461707e-10)
(-88.322 0 3.42102876647e-10)
(-88.322 0 5.64423410391e-10)
(-88.322 0 -2.37495524225e-10)
(-88.322 0 6.18233826601e-10)
(-88.3219999994 0 -1.96979533596e-10)
(-88.3219999999 0 6.87694548074e-11)
(-88.3220000007 0 -1.02446983711e-10)
(-88.3219999996 0 -3.14156474566e-10)
(-88.3219999999 0 1.23938626916e-10)
(-88.3220000016 0 -1.01372865281e-10)
(-88.3219999988 0 6.84240289391e-12)
(-88.321999998 0 -1.03865962289e-10)
(-88.3220000019 0 4.97964859829e-11)
(-88.3220000023 0 1.0260604265e-10)
(-88.3219999975 0 -8.57066457239e-11)
(-88.3219999976 0 3.97917558801e-10)
(-88.3220000024 0 -4.0077109528e-11)
(-88.3220000018 0 4.63133490416e-11)
(-88.3219999988 0 -9.88759435017e-11)
(-88.3219999998 0 1.34005329378e-12)
(-88.3220000006 0 -1.1427919961e-10)
(-88.3220000002 0 2.35248969199e-10)
(-88.3219999997 0 4.40611718289e-10)
(-88.3220000006 0 3.57474627578e-10)
(-88.3220000013 0 3.8005388901e-10)
(-88.3219999975 0 3.00994949701e-10)
(-88.3219999989 0 5.66299700649e-10)
(-88.322000002 0 1.95708406678e-10)
(-88.3219999998 0 -3.91221405891e-10)
(-88.3220000002 0 1.09343413509e-10)
(-88.3219999992 0 -2.41358676248e-10)
(-88.3219999989 0 2.31383896227e-10)
(-88.3220000016 0 6.28480502125e-10)
(-88.3220000009 0 -5.82551710224e-10)
(-88.3220000001 0 -2.14177045682e-10)
(-88.3219999997 0 4.54940933315e-10)
(-88.3219999996 0 3.5444697565e-11)
(-88.3219999998 0 -5.29289767938e-10)
(-88.3219999994 0 -1.17316075842e-09)
(-88.3219999997 0 8.78056282411e-10)
(-88.3220000001 0 1.07815001529e-09)
(-88.322 0 8.42059311364e-10)
(-88.3220000005 0 -3.28958694072e-10)
(-88.3220000001 0 -1.58172190937e-10)
(-88.322 0 2.99355649657e-10)
(-88.3220000004 0 -4.53315187088e-11)
(-88.322 0 -7.26685587415e-11)
(-88.3219999996 0 -5.45061485296e-12)
(-88.322 0 -9.27589448428e-12)
(-88.322 0 4.91795058161e-11)
(-88.322 0 1.44954784466e-11)
(-88.322 0 -1.18557614794e-11)
(-88.3220000001 0 8.53619369801e-11)
(-88.3220000002 0 -3.14247875721e-10)
(-88.3219999996 0 -3.27474318323e-10)
(-88.3219999998 0 6.11021237695e-11)
(-88.3220000004 0 -3.05184492162e-11)
(-88.322 0 4.07503045888e-11)
(-88.3220000002 0 1.91156511996e-10)
(-88.3219999994 0 1.79469629213e-10)
(-88.3219999994 0 -3.30249353782e-11)
(-88.3220000017 0 -7.56898247263e-12)
(-88.3220000012 0 4.02575366918e-11)
(-88.321999998 0 4.54618604211e-11)
(-88.3219999983 0 1.02627130095e-10)
(-88.3220000005 0 -1.28122052162e-10)
(-88.3220000001 0 1.56246385913e-10)
(-88.322 0 8.81375789746e-12)
(-88.3219999999 0 2.9101573414e-10)
(-88.3220000006 0 2.9167889538e-10)
(-88.3220000015 0 4.07644399256e-10)
(-88.3219999993 0 -4.08871690606e-11)
(-88.3219999994 0 1.47555621285e-10)
(-88.3220000005 0 4.35251330191e-10)
(-88.3220000001 0 -3.99274436187e-11)
(-88.322 0 -5.81047313801e-10)
(-88.3219999998 0 -8.06488813394e-10)
(-88.3220000002 0 2.59681032905e-10)
(-88.3219999997 0 9.65436360206e-10)
(-88.3219999999 0 -1.16483334822e-09)
(-88.3220000004 0 -2.94345133588e-10)
(-88.3219999999 0 1.29791346216e-10)
(-88.322 0 4.20666102145e-10)
(-88.322 0 -1.89800258366e-10)
(-88.322 0 2.54431548845e-10)
(-88.322 0 8.68539376098e-11)
(-88.322 0 3.53922131147e-10)
(-88.3219999999 0 -4.8251463479e-11)
(-88.3220000002 0 6.64371793188e-10)
(-88.3219999997 0 5.1902159086e-10)
(-88.3219999996 0 -4.96432006444e-10)
(-88.3220000004 0 -1.56999898302e-10)
(-88.3220000001 0 3.43677084597e-10)
(-88.3220000009 0 2.45583318586e-11)
(-88.3219999992 0 3.83645222422e-10)
(-88.3219999982 0 -4.85512429153e-10)
(-88.3220000016 0 -9.63452561996e-11)
(-88.3220000021 0 -2.58968392185e-10)
(-88.3219999991 0 2.27896246677e-10)
(-88.3219999998 0 1.10075822083e-10)
(-88.3219999998 0 -2.9736422212e-10)
(-88.3220000001 0 8.50953959536e-10)
(-88.3219999992 0 7.47309104404e-10)
(-88.3219999984 0 4.3453452238e-10)
(-88.3220000002 0 1.72620543502e-10)
(-88.3220000005 0 -4.28562583422e-11)
(-88.3220000002 0 -1.39321650045e-10)
(-88.3219999989 0 -2.62634585776e-10)
(-88.3219999999 0 4.84245855869e-10)
(-88.3220000006 0 6.79968891214e-10)
(-88.3219999999 0 1.75853957675e-11)
(-88.3219999999 0 4.46074620256e-10)
(-88.3219999999 0 3.18805001427e-10)
(-88.322 0 -4.81902301505e-10)
(-88.3220000001 0 2.79098543587e-11)
(-88.3219999998 0 1.01026697586e-10)
(-88.3220000003 0 -6.66634816635e-11)
(-88.3220000004 0 2.37518124339e-10)
(-88.3219999998 0 2.10108710854e-10)
(-88.3219999997 0 -6.19252817303e-10)
(-88.3219999998 0 5.30373762483e-10)
(-88.3219999996 0 4.41004439207e-10)
(-88.3219999997 0 5.89067650044e-10)
(-88.3220000004 0 1.1923320843e-10)
(-88.3220000004 0 -7.98505025249e-10)
(-88.3219999999 0 -2.71101484659e-10)
(-88.3219999998 0 9.67735697551e-10)
(-88.3219999998 0 1.16155723854e-09)
(-88.3220000004 0 -7.01701944743e-10)
(-88.3219999999 0 -6.69675325423e-10)
(-88.3219999998 0 -5.04069502027e-10)
(-88.3219999998 0 -1.37255346144e-10)
(-88.3219999989 0 1.27003826327e-10)
(-88.3219999997 0 -5.34691220976e-10)
(-88.3220000015 0 5.93845484231e-10)
(-88.3220000001 0 8.52043170706e-10)
(-88.3219999989 0 -1.69187416642e-10)
(-88.3220000021 0 -3.76253187756e-10)
(-88.3220000008 0 1.0837743874e-10)
(-88.3219999994 0 2.0466447498e-10)
(-88.3220000002 0 1.28001912607e-10)
(-88.3219999988 0 -1.49982620036e-10)
(-88.3220000004 0 -8.35396437025e-12)
(-88.322 0 -5.74657500143e-11)
(-88.3219999999 0 5.24193481832e-12)
(-88.3220000004 0 7.84947677158e-11)
(-88.3219999995 0 5.67510428739e-11)
(-88.3220000001 0 -3.34254205441e-11)
(-88.322 0 2.74739040341e-11)
(-88.322 0 1.49921949462e-11)
(-88.322 0 1.16302271482e-11)
(-88.322 0 6.23717208905e-12)
(-88.3220000002 0 -1.02529158568e-10)
(-88.3219999998 0 3.33844476289e-10)
(-88.3220000002 0 -2.55177261041e-10)
(-88.3220000003 0 -8.51223577468e-11)
(-88.3219999994 0 -2.92262951707e-11)
(-88.3220000002 0 1.61009939866e-10)
(-88.3220000001 0 3.19767219351e-10)
(-88.3219999998 0 -4.37566799644e-10)
(-88.3220000013 0 -5.24044455957e-10)
(-88.3220000001 0 3.06845894939e-10)
(-88.3219999995 0 4.14591391944e-10)
(-88.3220000007 0 5.8976638804e-11)
(-88.3219999981 0 4.41219949032e-10)
(-88.3219999977 0 -9.99541171411e-11)
(-88.3220000002 0 5.48805074471e-10)
(-88.3220000009 0 -2.44882829575e-10)
(-88.322000001 0 -8.31623271722e-11)
(-88.322000001 0 -2.78078033163e-10)
(-88.3220000005 0 5.42407114103e-10)
(-88.3219999988 0 2.14253130994e-11)
(-88.3219999982 0 -3.60293722462e-10)
(-88.3220000014 0 6.40633000281e-11)
(-88.3220000005 0 3.91393282642e-11)
(-88.3219999989 0 5.75488978145e-11)
(-88.322000002 0 -1.10326009681e-10)
(-88.3220000006 0 6.06093779849e-11)
(-88.3219999989 0 -2.00547138679e-10)
(-88.3220000002 0 -1.73036132985e-10)
(-88.3219999998 0 4.05658922382e-10)
(-88.3219999996 0 -3.85375353316e-10)
(-88.3220000013 0 -3.08818692034e-10)
(-88.3219999992 0 -5.98215117976e-11)
(-88.3219999982 0 -1.23937832846e-10)
(-88.3219999998 0 2.65254365894e-11)
(-88.3220000009 0 -3.10542150281e-10)
(-88.3220000022 0 -1.56950991014e-10)
(-88.322 0 5.28359369557e-11)
(-88.3219999981 0 -5.84930101662e-12)
(-88.3219999984 0 -3.81860039178e-12)
(-88.3220000013 0 -4.55590629091e-11)
(-88.322000002 0 3.89712172892e-12)
(-88.322 0 -6.29770666815e-11)
(-88.321999999 0 -7.79121057835e-11)
(-88.3219999988 0 5.14547346007e-11)
(-88.3220000007 0 -3.8214041471e-10)
(-88.3219999996 0 -3.85139458279e-10)
(-88.3219999988 0 -6.47278334653e-10)
(-88.3220000009 0 3.75672475855e-10)
(-88.3220000019 0 -5.04866528367e-10)
(-88.322 0 -3.92567320833e-10)
(-88.3219999989 0 8.80267996028e-10)
(-88.3219999999 0 2.21108437889e-10)
(-88.3220000006 0 -1.1884051339e-10)
(-88.3220000005 0 -5.25765934151e-10)
(-88.3219999995 0 -1.50807715856e-10)
(-88.3219999999 0 6.64586272492e-10)
(-88.3220000001 0 -2.30617649208e-10)
(-88.3219999999 0 -6.90168443025e-11)
(-88.3220000001 0 6.93223095135e-11)
(-88.322 0 1.0537380786e-10)
(-88.3219999999 0 -2.45406815654e-10)
(-88.322 0 7.99943633176e-11)
(-88.322 0 4.93228361201e-11)
(-88.3220000001 0 1.56593935208e-11)
(-88.3219999995 0 -8.09802286322e-12)
(-88.322 0 -5.6428231249e-11)
(-88.3220000005 0 3.41787852983e-11)
(-88.3219999999 0 -5.24402902488e-11)
(-88.3219999997 0 1.48266780573e-10)
(-88.3220000002 0 -5.85270321897e-11)
(-88.3220000004 0 6.1800796369e-11)
(-88.3219999997 0 -6.42621763047e-11)
(-88.3220000001 0 5.20240384304e-11)
(-88.3220000002 0 3.1680674457e-10)
(-88.3219999997 0 -1.06615800895e-11)
(-88.3219999998 0 1.10859162964e-10)
(-88.3220000002 0 4.97707710143e-10)
(-88.3219999999 0 -5.55167225046e-10)
(-88.3219999996 0 -5.56004426845e-10)
(-88.3219999997 0 1.93566086329e-11)
(-88.3220000003 0 2.95707491914e-10)
(-88.3220000006 0 -1.0246329341e-10)
(-88.322 0 1.09552185894e-10)
(-88.3220000006 0 2.53785093043e-10)
(-88.3219999998 0 -4.48595451859e-10)
(-88.3219999998 0 -7.12266046928e-10)
(-88.3219999999 0 1.8162882804e-10)
(-88.3220000002 0 -4.47716549319e-10)
(-88.3219999999 0 -3.63831234364e-10)
(-88.3220000001 0 4.79290204808e-10)
(-88.3220000005 0 -5.30964471514e-11)
(-88.3219999985 0 -1.24078974127e-10)
(-88.3220000008 0 1.02702647073e-10)
(-88.322000002 0 -2.16635791616e-10)
(-88.3219999992 0 -9.96274375531e-11)
(-88.3219999993 0 4.22472536648e-10)
(-88.3219999995 0 -5.28764020967e-10)
(-88.322 0 -3.69744583119e-10)
(-88.322 0 -5.7330179123e-10)
(-88.3219999998 0 3.24031183519e-11)
(-88.3220000002 0 5.09528055957e-10)
(-88.322 0 2.04329091232e-11)
(-88.3219999999 0 -4.02116560542e-10)
(-88.3219999998 0 -7.86574646905e-10)
(-88.3220000005 0 2.42912130604e-10)
(-88.322 0 1.85934132188e-10)
(-88.3219999996 0 2.84807592712e-10)
(-88.3220000004 0 -2.7377932845e-10)
(-88.3219999998 0 -3.24171688716e-10)
(-88.3220000002 0 9.07929011272e-11)
(-88.3219999999 0 -5.54357258855e-10)
(-88.322 0 -5.36579471274e-10)
(-88.3220000003 0 -8.84708386255e-11)
(-88.3219999994 0 4.3207469614e-10)
(-88.3219999996 0 -9.3696078921e-11)
(-88.3220000014 0 -1.13140473767e-10)
(-88.3220000017 0 -1.26039909516e-10)
(-88.3219999989 0 -5.83510672873e-11)
(-88.3219999979 0 2.6037659933e-10)
(-88.3220000002 0 -6.84388919186e-11)
(-88.3220000014 0 1.19075134852e-10)
(-88.3219999999 0 -4.11126412891e-11)
(-88.3219999992 0 -3.02608818416e-11)
(-88.3220000007 0 5.4151701507e-11)
(-88.322 0 -1.95274772502e-11)
(-88.3219999994 0 -1.46245954184e-11)
(-88.3220000002 0 -5.88920137124e-11)
(-88.3220000001 0 -2.21708744611e-11)
(-88.3220000003 0 5.51228923298e-11)
(-88.3219999997 0 -2.19843992187e-10)
(-88.3220000002 0 7.59195490138e-11)
(-88.322 0 1.48102357652e-10)
(-88.3219999994 0 -1.95720385818e-10)
(-88.3220000003 0 -2.55325055871e-10)
(-88.3220000001 0 1.58753567908e-10)
(-88.3219999998 0 6.6593793805e-10)
(-88.3220000006 0 6.37984193456e-10)
(-88.3220000003 0 -2.67624087889e-10)
(-88.3219999999 0 -4.15033339319e-10)
(-88.3219999998 0 -2.94721115381e-10)
(-88.3219999995 0 -4.95458773288e-10)
(-88.3219999998 0 1.88183978847e-10)
(-88.3219999991 0 -4.75431091155e-10)
(-88.3219999992 0 3.59052639983e-10)
(-88.3220000013 0 -2.21414295853e-10)
(-88.3220000005 0 1.70170500936e-10)
(-88.3220000003 0 -3.41808693967e-10)
(-88.322 0 4.74717893863e-11)
(-88.322 0 -6.00209218706e-11)
(-88.322 0 1.05801071805e-11)
(-88.322 0 -8.43461365642e-11)
(-88.322 0 9.98826403204e-11)
(-88.322 0 5.26969132859e-11)
(-88.322 0 -1.06298919326e-10)
(-88.3220000001 0 1.98516486795e-10)
(-88.322 0 1.67407589849e-10)
(-88.322 0 -4.98206588757e-10)
(-88.322 0 5.89197846756e-10)
(-88.322 0 5.4362015172e-10)
(-88.3220000001 0 5.55528007202e-11)
(-88.3219999999 0 1.23803159473e-10)
(-88.322 0 -5.7166818948e-11)
(-88.322 0 1.04381553872e-10)
(-88.322 0 -8.96396362898e-12)
(-88.322 0 -4.54186217922e-12)
(-88.322 0 2.48123277633e-11)
(-88.322 0 -3.19946726548e-11)
(-88.322 0 1.49349529111e-11)
(-88.322 0 -2.82547683346e-11)
(-88.322 0 2.21548099133e-10)
(-88.322 0 -9.31046811148e-11)
(-88.322 0 -4.82358502015e-11)
(-88.322 0 1.17896891649e-10)
(-88.322 0 -2.22061062639e-11)
(-88.322 0 6.02801815437e-11)
(-88.322 0 -2.51996373709e-10)
(-88.322 0 5.94612473471e-11)
(-88.322 0 -1.26309328911e-10)
(-88.322 0 1.7085911326e-13)
(-88.322 0 1.81299784316e-10)
(-88.3220000004 0 -2.2487298964e-10)
(-88.3219999998 0 1.91650827095e-10)
(-88.3219999996 0 -2.34583669931e-10)
(-88.3220000001 0 -7.66592487179e-10)
(-88.322 0 2.07374066239e-10)
(-88.3220000001 0 3.48920918064e-10)
(-88.322 0 -5.55694204379e-11)
(-88.322 0 -1.01828307952e-10)
(-88.322 0 2.50466749569e-10)
(-88.3220000001 0 -1.16754265663e-10)
(-88.322 0 -4.2537224074e-11)
(-88.3219999999 0 -3.86577796906e-11)
(-88.322 0 -7.82389649989e-11)
(-88.3219999999 0 1.80249437108e-10)
(-88.3219999998 0 -6.41407492469e-12)
(-88.3220000004 0 2.43104233076e-10)
(-88.3220000005 0 -6.69596612038e-11)
(-88.3219999995 0 -9.16994078473e-11)
(-88.3219999986 0 -2.09345663631e-10)
(-88.3219999988 0 7.83274451628e-11)
(-88.322000002 0 1.45255924318e-10)
(-88.3220000024 0 -2.37204769356e-10)
(-88.3219999996 0 -1.15865945813e-10)
(-88.3219999999 0 -1.50561316523e-11)
(-88.3219999992 0 -1.41377119875e-10)
(-88.3219999998 0 7.87594915798e-11)
(-88.3219999992 0 6.54309786732e-11)
(-88.3219999992 0 -1.0759329806e-09)
(-88.3220000006 0 -9.84761144226e-10)
(-88.322 0 -2.47146939367e-10)
(-88.3219999996 0 1.88481129971e-10)
(-88.3220000001 0 1.27682225218e-10)
(-88.3219999998 0 -1.98516157744e-10)
(-88.3219999999 0 -6.77959185724e-11)
(-88.3219999997 0 9.89983671196e-11)
(-88.3219999999 0 7.01261368519e-11)
(-88.3220000003 0 -1.65021249642e-10)
(-88.3219999999 0 -1.94138636059e-10)
(-88.322 0 -2.9749986731e-11)
(-88.322 0 -1.00281784162e-10)
(-88.322 0 2.8431606621e-11)
(-88.3219999999 0 -4.10200662991e-11)
(-88.3220000002 0 -2.46824155946e-11)
(-88.3220000001 0 -2.14076334015e-11)
(-88.3219999998 0 -3.74611730022e-11)
(-88.322 0 -4.88835775094e-11)
(-88.322 0 -5.01658357718e-11)
(-88.322 0 -2.8419945898e-12)
(-88.322 0 5.92532836577e-11)
(-88.322 0 -1.74340088332e-10)
(-88.3219999998 0 -7.69149636536e-11)
(-88.3219999998 0 5.79268839624e-10)
(-88.322 0 3.97441911498e-10)
(-88.3220000001 0 -4.97371319197e-10)
(-88.3220000001 0 -3.61133307407e-10)
(-88.322 0 -9.91046357553e-11)
(-88.3219999998 0 8.27257858371e-11)
(-88.3220000003 0 -2.02032234052e-10)
(-88.3220000004 0 1.56977253776e-10)
(-88.322 0 -1.59194040343e-10)
(-88.3220000002 0 -4.15887060061e-10)
(-88.3219999996 0 -3.43074366222e-10)
(-88.321999999 0 3.34519717445e-10)
(-88.3220000018 0 -4.60592122192e-10)
(-88.3220000017 0 -4.92341257146e-10)
(-88.321999999 0 -4.3163383725e-10)
(-88.3219999998 0 4.77718074099e-10)
(-88.3219999993 0 3.41063925285e-10)
(-88.321999999 0 -3.9184154191e-10)
(-88.3220000003 0 -2.41726910916e-10)
(-88.322 0 5.718198343e-10)
(-88.322 0 1.39897819906e-10)
(-88.3220000001 0 -4.02973957199e-10)
(-88.322 0 -6.18464376667e-10)
(-88.322 0 2.41129688253e-10)
(-88.3220000002 0 -2.45116638716e-10)
(-88.3219999998 0 -1.14339969549e-10)
(-88.3219999996 0 -5.30911310191e-10)
(-88.322 0 4.21813857627e-10)
(-88.3220000002 0 -1.56604085988e-10)
(-88.322 0 7.61772181051e-11)
(-88.3220000007 0 3.66745350419e-10)
(-88.3219999998 0 -4.59230796851e-10)
(-88.3219999991 0 -1.06255830468e-09)
(-88.3220000012 0 -1.27256005361e-09)
(-88.3220000008 0 -4.82501767013e-10)
(-88.3219999994 0 1.1060736907e-09)
(-88.3219999998 0 6.3016593413e-10)
(-88.3219999992 0 -7.93712971802e-11)
(-88.3219999994 0 -7.947814179e-10)
(-88.3220000014 0 8.33678316794e-10)
(-88.3220000013 0 -5.00890240467e-11)
(-88.3219999995 0 -1.99302441258e-10)
(-88.3219999993 0 -5.06669753541e-11)
(-88.322 0 1.11296855358e-10)
(-88.3220000008 0 4.48043528788e-11)
(-88.3220000004 0 3.24777725445e-10)
(-88.3219999995 0 -2.49050210966e-10)
(-88.3219999998 0 2.28060146337e-10)
(-88.3220000006 0 -2.8505632306e-10)
(-88.3220000005 0 2.86858916796e-10)
(-88.3219999997 0 3.20433432468e-10)
(-88.322 0 -2.62002484636e-10)
(-88.3219999998 0 -4.43733432381e-10)
(-88.322 0 -1.24652217055e-10)
(-88.3220000001 0 -4.97091922347e-10)
(-88.322 0 -4.61212028064e-10)
(-88.3220000001 0 -1.1484506756e-10)
(-88.322 0 7.1497881436e-11)
(-88.322 0 5.46089784634e-11)
(-88.3219999999 0 1.2724151124e-10)
(-88.3219999998 0 -4.0080876245e-10)
(-88.3220000004 0 -7.94187137581e-10)
(-88.3220000002 0 3.59145618359e-10)
(-88.3219999985 0 3.44836277702e-10)
(-88.3219999991 0 8.19057556405e-10)
(-88.3220000022 0 -5.27460805207e-10)
(-88.3220000015 0 -5.29090551886e-10)
(-88.3219999992 0 3.38308716773e-10)
(-88.3219999992 0 3.20894621425e-10)
(-88.3220000002 0 3.17870913299e-10)
(-88.3219999999 0 1.01289464273e-10)
(-88.322 0 3.78872886583e-10)
(-88.3220000011 0 1.03521871929e-10)
(-88.3220000003 0 6.07670733962e-11)
(-88.3219999985 0 9.90563212656e-11)
(-88.3220000002 0 -1.55983781351e-10)
(-88.3220000016 0 -4.08838738067e-10)
(-88.3220000004 0 5.86797457313e-10)
(-88.3219999979 0 8.93164056882e-10)
(-88.321999998 0 5.82508468113e-10)
(-88.3220000017 0 7.96321528832e-10)
(-88.3220000012 0 -5.97461697192e-10)
(-88.3219999982 0 -6.51989155603e-11)
(-88.3219999992 0 5.41340917216e-11)
(-88.322000002 0 -8.31498330498e-11)
(-88.3220000014 0 6.73691045903e-11)
(-88.3219999987 0 -1.24436191306e-10)
(-88.3219999993 0 6.11438017386e-11)
(-88.3220000006 0 -1.30804827284e-10)
(-88.3220000006 0 -3.30461396957e-10)
(-88.3219999988 0 2.66678914993e-10)
(-88.321999999 0 3.78820230362e-10)
(-88.3220000011 0 5.1391962452e-10)
(-88.3219999994 0 -3.62670310475e-10)
(-88.3220000005 0 -3.65035189401e-10)
(-88.3220000013 0 8.38260395365e-10)
(-88.3220000004 0 1.43102698453e-10)
(-88.3220000009 0 1.25444311874e-10)
(-88.3219999978 0 3.68360829096e-10)
(-88.3219999975 0 5.84549116828e-10)
(-88.3220000023 0 7.29051547963e-10)
(-88.3220000019 0 -2.73501928296e-10)
(-88.3219999979 0 -4.84894506437e-10)
(-88.3219999977 0 -2.00019775154e-10)
(-88.3220000012 0 4.72608874017e-10)
(-88.3220000006 0 4.65798487133e-10)
(-88.3219999992 0 3.18251863501e-10)
(-88.322 0 -2.35998229641e-10)
(-88.3219999997 0 -2.380173719e-10)
(-88.3220000004 0 1.6384516225e-10)
(-88.322 0 -2.6608374934e-11)
(-88.3219999998 0 -9.01244159916e-11)
(-88.3219999998 0 -1.45995187713e-10)
(-88.3219999991 0 1.71804389436e-10)
(-88.322000001 0 1.38744222631e-10)
(-88.3220000015 0 5.03157418108e-11)
(-88.3219999997 0 -4.61107808535e-11)
(-88.322 0 -4.13505865721e-10)
(-88.3220000005 0 -1.92990817723e-11)
(-88.3219999995 0 -1.06935737354e-10)
(-88.321999999 0 -1.33702612117e-10)
(-88.3219999994 0 9.56854736283e-11)
(-88.3219999999 0 -1.43673175835e-10)
(-88.3220000009 0 -1.24627956164e-11)
(-88.3220000018 0 -6.97507054195e-12)
(-88.3219999986 0 -7.26931959168e-11)
(-88.3219999978 0 2.06515696636e-10)
(-88.3219999989 0 -7.01889660597e-12)
(-88.3220000016 0 -3.94024237483e-10)
(-88.3220000027 0 -2.50682963415e-10)
(-88.3219999985 0 3.45265651633e-10)
(-88.3219999984 0 5.10426964129e-10)
(-88.322 0 9.48946903972e-11)
(-88.3220000001 0 -4.65606046391e-11)
(-88.3220000001 0 2.05865328556e-10)
(-88.3220000004 0 -1.09114459295e-10)
(-88.3220000006 0 1.72536177924e-10)
(-88.3220000001 0 4.23630425788e-10)
(-88.322 0 3.38606627284e-10)
(-88.3219999998 0 -3.20901911717e-10)
(-88.3220000004 0 5.67942535753e-10)
(-88.3219999993 0 2.59044396105e-10)
(-88.3219999988 0 6.8771021235e-10)
(-88.3220000001 0 -5.30070109823e-10)
(-88.3220000017 0 -3.45967330191e-10)
(-88.3220000007 0 5.43036769208e-10)
(-88.3219999991 0 1.88026926105e-10)
(-88.322 0 -5.90031969862e-10)
(-88.3220000001 0 -1.34589395114e-10)
(-88.3220000002 0 3.83130395175e-10)
(-88.322 0 6.48297844388e-10)
(-88.3219999999 0 -4.36685796527e-10)
(-88.3220000009 0 2.46539823903e-10)
(-88.3219999991 0 8.49413883806e-11)
(-88.3219999981 0 5.47165114995e-10)
(-88.3219999996 0 -4.52021344507e-10)
(-88.3220000017 0 3.00125284377e-11)
(-88.3220000018 0 1.81895280994e-10)
(-88.3219999982 0 -6.56426081627e-10)
(-88.3219999988 0 1.2058005209e-10)
(-88.3220000005 0 8.51577173213e-10)
(-88.3220000007 0 8.10996079759e-10)
(-88.322 0 5.23572505256e-10)
(-88.3219999989 0 -4.50407044183e-10)
(-88.3220000014 0 -6.39618352153e-10)
(-88.3220000015 0 5.40265189578e-10)
(-88.3219999994 0 5.52453836303e-10)
(-88.3219999996 0 -4.53924656591e-10)
(-88.322 0 -5.52756080455e-10)
(-88.3219999999 0 1.46612464656e-10)
(-88.322 0 -1.80393130413e-10)
(-88.322 0 -4.71558145312e-11)
(-88.322 0 1.49432268916e-10)
(-88.322 0 -2.68293465798e-10)
(-88.322 0 1.79801405362e-10)
(-88.322 0 -1.52676444828e-10)
(-88.322 0 1.4890349472e-10)
(-88.322 0 -2.60237474513e-10)
(-88.322 0 -1.68756886189e-10)
(-88.3220000003 0 -2.45054333429e-10)
(-88.3220000007 0 1.65146943061e-11)
(-88.3219999999 0 4.0687121386e-10)
(-88.3219999995 0 1.90790277033e-10)
(-88.3220000002 0 -1.56528191783e-10)
(-88.3219999997 0 -3.22587358871e-10)
(-88.322 0 1.77415772749e-10)
(-88.3220000002 0 2.24849185301e-10)
(-88.3219999996 0 -2.93385383494e-10)
(-88.322 0 4.58828869962e-10)
(-88.322 0 7.92361515787e-10)
(-88.3220000001 0 -3.34247748454e-10)
(-88.3219999997 0 -3.53526789497e-10)
(-88.3219999996 0 -8.50368730127e-10)
(-88.3220000006 0 4.30005469636e-10)
(-88.322 0 4.80739709689e-10)
(-88.3219999998 0 -3.66572224274e-10)
(-88.3220000002 0 -3.29387352115e-10)
(-88.3219999999 0 -3.79749080787e-10)
(-88.322 0 -2.4929661698e-10)
(-88.322 0 -2.48712209021e-10)
(-88.322 0 -1.26630766937e-10)
(-88.322 0 1.36009318503e-10)
(-88.322 0 1.42739008949e-10)
(-88.3219999997 0 -1.62335845976e-10)
(-88.3220000004 0 4.13463864253e-10)
(-88.3220000003 0 -3.23847148282e-10)
(-88.3219999995 0 -8.10622102565e-10)
(-88.322 0 -6.29263637032e-10)
(-88.3219999997 0 -1.75104818727e-10)
(-88.3220000002 0 -1.97146679624e-11)
(-88.3220000005 0 -5.03728137503e-10)
(-88.3219999998 0 2.40897890582e-10)
(-88.322 0 4.00263560961e-10)
(-88.322 0 -3.90187534906e-10)
(-88.3220000004 0 8.82851916361e-11)
(-88.3220000002 0 -5.53267498169e-10)
(-88.3219999996 0 -4.82365029667e-10)
(-88.322 0 1.76885437327e-10)
(-88.3219999998 0 -8.84468518712e-10)
(-88.322 0 -5.47828143382e-10)
(-88.3219999999 0 -5.44274848926e-10)