/*--------------------------------*- C++ -*----------------------------------*\
  =========                 |
  \\      /  F ield         | OpenFOAM: The Open Source CFD Toolbox
   \\    /   O peration     | Website:  https://openfoam.org
    \\  /    A nd           | Version:  6
     \\/     M anipulation  |
\*---------------------------------------------------------------------------*/
FoamFile
{
    version     2.0;
    format      ascii;
    class       volVectorField;
    location    "4.2e-05";
    object      U;
}
// * * * * * * * * * * * * * * * * * * * * * * * * * * * * * * * * * * * * * //

dimensions      [0 1 -1 0 0 0 0];

internalField   nonuniform List<vector> 
8192
(
(-88.3220000002 0 -2.72472968506e-10)
(-88.3219999996 0 -4.03960362525e-11)
(-88.3220000001 0 -6.75756167701e-11)
(-88.3220000001 0 -1.49601693928e-10)
(-88.3219999997 0 -5.74462887217e-11)
(-88.3219999998 0 2.41228812726e-11)
(-88.3220000002 0 -2.57176475691e-12)
(-88.322 0 3.23783850105e-11)
(-88.322 0 -1.77352959725e-10)
(-88.322 0 -4.91321044056e-10)
(-88.322 0 -5.21632960391e-10)
(-88.322 0 2.88036618199e-10)
(-88.3220000001 0 5.60884494497e-10)
(-88.322 0 -5.43098983693e-10)
(-88.3219999999 0 -5.54539547876e-10)
(-88.3219999999 0 2.67965121952e-10)
(-88.322 0 1.37448650208e-10)
(-88.322 0 4.34178568332e-10)
(-88.3220000001 0 -3.82945864247e-10)
(-88.322 0 -3.9272090721e-10)
(-88.3219999998 0 2.51107541417e-10)
(-88.3220000001 0 3.10234867719e-10)
(-88.3220000002 0 -3.72717439013e-10)
(-88.3219999999 0 -4.41472497568e-10)
(-88.322 0 1.12711543212e-10)
(-88.3219999999 0 9.4985313481e-11)
(-88.3219999999 0 1.45105539995e-10)
(-88.3219999999 0 1.10587628692e-10)
(-88.3220000002 0 1.85601895726e-10)
(-88.3220000001 0 -8.78225711187e-11)
(-88.3219999999 0 1.44907160446e-10)
(-88.3219999998 0 5.93721943329e-12)
(-88.3219999993 0 7.25246527644e-11)
(-88.3220000012 0 3.89290037125e-10)
(-88.3220000018 0 -5.31817729591e-10)
(-88.3219999991 0 -4.86429847788e-10)
(-88.3219999998 0 -2.39855823641e-11)
(-88.3219999996 0 -4.55831043794e-10)
(-88.3219999989 0 1.71281182371e-10)
(-88.3220000004 0 1.03512502607e-10)
(-88.3220000001 0 -4.20417084149e-12)
(-88.3219999999 0 1.93213973427e-11)
(-88.3220000001 0 -1.51241630905e-11)
(-88.322 0 -1.20415048226e-11)
(-88.322 0 -4.48934986706e-11)
(-88.322 0 -2.43247483588e-11)
(-88.322 0 -1.36937064252e-11)
(-88.322 0 -7.26357418868e-12)
(-88.322 0 1.90931807394e-12)
(-88.3219999999 0 -4.35759747311e-11)
(-88.3219999999 0 4.55054482364e-11)
(-88.3220000003 0 -1.03787459491e-11)
(-88.3219999997 0 -1.38260121354e-10)
(-88.3219999996 0 2.1872162015e-10)
(-88.3220000009 0 1.35937275136e-10)
(-88.3220000005 0 -2.08822828052e-10)
(-88.3219999999 0 -4.61536208959e-11)
(-88.3219999998 0 -1.21619142054e-10)
(-88.3220000001 0 -3.44020211709e-11)
(-88.3219999994 0 -1.94107827192e-10)
(-88.3219999988 0 2.5834517766e-10)
(-88.3219999998 0 3.34729107332e-10)
(-88.3220000006 0 3.20203318157e-10)
(-88.3220000013 0 6.27407938524e-11)
(-88.322 0 -1.69810753611e-10)
(-88.3219999999 0 -5.45487314103e-11)
(-88.3220000001 0 5.66515655451e-11)
(-88.3219999999 0 3.9351894611e-12)
(-88.322 0 1.13908496546e-10)
(-88.3220000001 0 -7.78415787577e-11)
(-88.3219999998 0 1.75139664646e-11)
(-88.3220000004 0 1.36496042866e-12)
(-88.322000001 0 -1.40672251872e-12)
(-88.3220000006 0 -3.13363661519e-11)
(-88.3219999985 0 2.75565671509e-11)
(-88.3219999979 0 -1.30812787815e-10)
(-88.3220000016 0 -1.39939100324e-11)
(-88.3220000021 0 -1.22349027e-10)
(-88.3219999985 0 -2.06373140456e-10)
(-88.3219999987 0 1.99291482296e-10)
(-88.3219999997 0 9.38595634332e-11)
(-88.3220000011 0 1.20713758263e-10)
(-88.3220000016 0 -2.34360570308e-10)
(-88.3219999988 0 -1.4254756119e-10)
(-88.3219999988 0 -1.09971084655e-11)
(-88.3220000011 0 6.51847219882e-11)
(-88.3220000013 0 1.31387253132e-10)
(-88.3219999991 0 -5.727382303e-11)
(-88.321999999 0 3.41209748636e-10)
(-88.322 0 -2.19247853122e-10)
(-88.322 0 2.71745048169e-10)
(-88.322 0 2.21820275226e-10)
(-88.3220000003 0 1.22655072871e-11)
(-88.322 0 5.1096382071e-11)
(-88.3219999999 0 3.05717525285e-11)
(-88.3220000002 0 -8.84609166841e-12)
(-88.3219999999 0 -1.28713054488e-10)
(-88.3220000001 0 -3.35517778413e-10)
(-88.322 0 3.6428025693e-10)
(-88.3219999998 0 4.64568600549e-10)
(-88.3220000001 0 -8.24669983328e-12)
(-88.322 0 2.61535406086e-10)
(-88.322 0 -1.71334655336e-10)
(-88.322 0 -1.21119859207e-10)
(-88.322 0 4.81837030344e-11)
(-88.322 0 -3.03889183205e-11)
(-88.322 0 1.54567864716e-11)
(-88.322 0 -9.66513694433e-11)
(-88.322 0 -3.46871601967e-10)
(-88.322 0 -2.58080921825e-10)
(-88.322 0 -2.63995288405e-10)
(-88.322 0 -2.62929354172e-10)
(-88.322 0 -2.92992756861e-10)
(-88.322 0 -1.101041045e-10)
(-88.322 0 2.43852490165e-10)
(-88.322 0 -4.47382222536e-11)
(-88.3219999999 0 3.10319027699e-11)
(-88.322 0 -5.04685688408e-11)
(-88.322 0 -2.13917243928e-10)
(-88.322 0 3.77685352912e-10)
(-88.322 0 -1.0908944762e-10)
(-88.3220000001 0 -2.10958464269e-10)
(-88.322 0 -3.73035710743e-10)
(-88.322 0 6.08039017843e-10)
(-88.322 0 2.05471004354e-10)
(-88.3220000001 0 -7.23124049108e-10)
(-88.322 0 -8.54809539921e-10)
(-88.322 0 -3.57839973322e-10)
(-88.3219999996 0 3.92016346351e-11)
(-88.3219999992 0 4.25560574707e-11)
(-88.322 0 -1.24231416308e-11)
(-88.322 0 1.04445346989e-10)
(-88.3219999999 0 -6.17630235307e-11)
(-88.322 0 7.03398106964e-11)
(-88.322 0 -1.40163134875e-11)
(-88.322 0 -2.92169547363e-11)
(-88.3220000001 0 1.52245811906e-10)
(-88.322 0 4.62750541734e-10)
(-88.3220000001 0 4.88092721552e-10)
(-88.3220000001 0 -2.46088566114e-10)
(-88.322 0 -5.1777347544e-10)
(-88.3220000003 0 4.53541101185e-10)
(-88.3219999993 0 5.02094209901e-10)
(-88.3219999993 0 -2.75685233604e-10)
(-88.3220000001 0 -1.40260343668e-10)
(-88.3220000006 0 -4.03691649786e-10)
(-88.3220000006 0 3.93864801127e-10)
(-88.3219999996 0 3.73693648581e-10)
(-88.3219999994 0 -2.40011450186e-10)
(-88.3219999998 0 -2.2705879402e-10)
(-88.3220000004 0 3.77821326209e-10)
(-88.3219999995 0 4.33602897658e-10)
(-88.3220000003 0 -6.03351098769e-11)
(-88.322 0 -8.76438752087e-11)
(-88.321999999 0 -6.79606671568e-11)
(-88.3220000005 0 3.49056814111e-11)
(-88.3220000005 0 2.12762764982e-11)
(-88.322 0 -1.26219340687e-11)
(-88.3220000001 0 9.16795251033e-11)
(-88.3220000002 0 -1.64808705408e-11)
(-88.322 0 -3.42067832469e-10)
(-88.322 0 3.15177485493e-10)
(-88.3220000001 0 4.45893900927e-10)
(-88.322 0 -2.19040531349e-10)
(-88.3220000003 0 -4.86767213276e-10)
(-88.322 0 6.33703656522e-10)
(-88.3219999997 0 3.30465500349e-10)
(-88.322 0 -3.40101144768e-10)
(-88.322 0 -3.41867384712e-10)
(-88.322 0 9.33690061101e-11)
(-88.3220000002 0 -2.11530802756e-10)
(-88.3220000008 0 -5.27828388645e-11)
(-88.3220000003 0 -2.36176622264e-10)
(-88.3219999998 0 4.00624895173e-11)
(-88.322 0 -4.08369531934e-10)
(-88.3219999999 0 -5.39910200472e-10)
(-88.3219999997 0 3.32413544067e-10)
(-88.3219999989 0 5.65975792912e-12)
(-88.3219999998 0 -2.43604065155e-10)
(-88.3220000007 0 1.20411604255e-10)
(-88.3219999997 0 -3.56177099679e-10)
(-88.322 0 3.18514699155e-10)
(-88.322 0 5.38767583614e-12)
(-88.3220000002 0 -2.86572335793e-10)
(-88.3220000011 0 -2.70038578686e-10)
(-88.3220000004 0 -2.80105293099e-10)
(-88.3219999985 0 -1.41867718882e-10)
(-88.3219999983 0 -1.24252093402e-10)
(-88.3220000015 0 -1.27586662147e-10)
(-88.3220000019 0 6.52385060319e-11)
(-88.3219999998 0 2.99263647987e-11)
(-88.3219999999 0 3.90534576824e-11)
(-88.322 0 4.83830115114e-10)
(-88.322 0 1.36241622969e-10)
(-88.322 0 1.39294060275e-11)
(-88.322 0 1.05605186526e-10)
(-88.322 0 -1.00694455572e-10)
(-88.322 0 2.37574222179e-11)
(-88.322 0 5.18289989715e-12)
(-88.322 0 2.56196892158e-11)
(-88.322 0 1.08200277904e-11)
(-88.322 0 6.22705360201e-11)
(-88.3219999999 0 -3.04478230141e-12)
(-88.3219999999 0 1.002209142e-10)
(-88.3220000002 0 6.15527641111e-12)
(-88.3220000001 0 2.07446352466e-10)
(-88.3219999999 0 2.38166443599e-10)
(-88.322 0 -1.93148501467e-10)
(-88.322 0 -9.01901719305e-11)
(-88.322 0 -1.83258058889e-10)
(-88.322 0 3.07924230139e-10)
(-88.322 0 3.26877327511e-10)
(-88.322 0 -3.67035674146e-10)
(-88.322 0 -5.02625958158e-10)
(-88.322 0 2.61319252273e-10)
(-88.322 0 3.65880319364e-10)
(-88.322 0 -1.45657827308e-10)
(-88.322 0 4.63245013033e-10)
(-88.3219999998 0 -1.79807332688e-10)
(-88.3219999998 0 -8.12956698895e-12)
(-88.3220000003 0 -1.07750650213e-10)
(-88.3219999999 0 -1.56730258633e-10)
(-88.3219999999 0 2.8034083942e-11)
(-88.3220000011 0 -5.76736924383e-11)
(-88.3219999992 0 -1.01127265849e-12)
(-88.3219999987 0 -3.99464250276e-11)
(-88.3220000011 0 3.58203726085e-11)
(-88.3220000016 0 6.50813732146e-11)
(-88.3219999984 0 -3.9293746723e-11)
(-88.3219999984 0 2.58214286527e-10)
(-88.3220000018 0 -5.88474472149e-12)
(-88.3220000013 0 1.87449894346e-11)
(-88.3219999991 0 -3.13969765056e-11)
(-88.3219999998 0 -1.18440633066e-11)
(-88.3220000003 0 -2.49750008001e-11)
(-88.3220000001 0 9.88332806402e-11)
(-88.3219999998 0 3.75686554349e-10)
(-88.3220000004 0 2.58346691931e-10)
(-88.3220000011 0 2.67297713263e-10)
(-88.3219999985 0 1.90859846737e-10)
(-88.321999999 0 3.82477323084e-10)
(-88.3220000011 0 1.84158648351e-10)
(-88.3219999998 0 -2.71367085488e-10)
(-88.3220000003 0 9.47191272867e-11)
(-88.3219999995 0 -1.20104938674e-10)
(-88.3219999993 0 2.42817946307e-10)
(-88.3220000012 0 4.36945271207e-10)
(-88.3220000005 0 -4.54893536629e-10)
(-88.322 0 -8.15411012675e-11)
(-88.3219999998 0 3.69656101543e-10)
(-88.3219999997 0 1.09281937104e-10)
(-88.3219999998 0 -3.48020577671e-10)
(-88.3219999996 0 -7.3932638725e-10)
(-88.3219999998 0 7.52716337511e-10)
(-88.3220000001 0 7.00496276611e-10)
(-88.322 0 5.13981982655e-10)
(-88.3220000003 0 -2.57819942834e-10)
(-88.3220000001 0 -6.44733468458e-11)
(-88.322 0 1.14233921095e-10)
(-88.3220000002 0 -9.30146470663e-12)
(-88.322 0 -3.12043807881e-11)
(-88.3219999998 0 -2.47203261881e-12)
(-88.322 0 1.45635768805e-11)
(-88.322 0 2.14164511381e-11)
(-88.322 0 1.72866533616e-11)
(-88.322 0 -1.13016065686e-12)
(-88.322 0 3.32292699175e-11)
(-88.322 0 -1.35782218619e-10)
(-88.3219999999 0 -1.52275767614e-10)
(-88.322 0 -1.55537596502e-12)
(-88.3220000001 0 -9.25519913573e-12)
(-88.322 0 1.82215880633e-11)
(-88.3220000001 0 7.44999081924e-11)
(-88.3219999998 0 8.6342032107e-11)
(-88.3219999996 0 -5.20103407388e-12)
(-88.3220000009 0 1.00240484455e-11)
(-88.322000001 0 1.60275162168e-11)
(-88.3219999986 0 3.34547717859e-12)
(-88.3219999987 0 3.5630397719e-11)
(-88.3220000003 0 -1.08388390183e-10)
(-88.3220000001 0 6.56284709063e-11)
(-88.3220000001 0 4.42631267151e-12)
(-88.3219999999 0 1.76328884877e-10)
(-88.3220000003 0 2.23849205265e-10)
(-88.3220000008 0 2.60268373523e-10)
(-88.3219999997 0 1.8164654091e-13)
(-88.3219999998 0 1.60732061709e-10)
(-88.3220000003 0 2.82208540122e-10)
(-88.322 0 -2.21525223602e-11)
(-88.322 0 -4.08225633955e-10)
(-88.322 0 -6.03966258667e-10)
(-88.3220000001 0 3.40410062231e-11)
(-88.3219999999 0 6.22413571133e-10)
(-88.322 0 -8.0597505836e-10)
(-88.3220000001 0 -2.71992597625e-10)
(-88.322 0 2.19516165111e-10)
(-88.322 0 2.96724573245e-10)
(-88.322 0 -8.35497089506e-11)
(-88.322 0 1.88864143807e-10)
(-88.322 0 5.37933930136e-11)
(-88.322 0 2.13503282288e-10)
(-88.322 0 -3.3081390779e-11)
(-88.3220000001 0 4.04900073207e-10)
(-88.3219999998 0 4.87028812338e-10)
(-88.3219999997 0 -2.97185990005e-10)
(-88.3220000002 0 -5.90597380511e-11)
(-88.322 0 1.86789343395e-10)
(-88.3220000004 0 -2.3551701565e-11)
(-88.3219999994 0 2.86259921289e-10)
(-88.3219999989 0 -2.9113384736e-10)
(-88.3220000014 0 -3.41917600579e-11)
(-88.3220000012 0 -1.84963870177e-10)
(-88.3219999994 0 4.94966784215e-11)
(-88.322 0 1.28029325868e-10)
(-88.3219999998 0 -2.99740646032e-10)
(-88.322 0 5.88617921295e-10)
(-88.3219999993 0 4.5640009065e-10)
(-88.3219999991 0 3.07731862695e-10)
(-88.3220000002 0 1.31618072686e-10)
(-88.3220000003 0 3.63881525522e-11)
(-88.3220000002 0 -5.67868567186e-11)
(-88.3219999993 0 -1.42640727944e-10)
(-88.322 0 2.66503802314e-10)
(-88.3220000002 0 4.66985963314e-10)
(-88.322 0 -8.50802145719e-11)
(-88.3219999999 0 3.99739802311e-10)
(-88.322 0 3.33114956524e-10)
(-88.322 0 -3.06832857417e-10)
(-88.322 0 -1.16727246848e-11)
(-88.322 0 7.20238206436e-11)
(-88.3220000001 0 -1.53359915439e-11)
(-88.3220000002 0 9.38114237721e-11)
(-88.3219999999 0 1.15181599459e-10)
(-88.3219999999 0 -3.01664895854e-10)
(-88.3219999999 0 4.16369280756e-10)
(-88.3219999999 0 3.49986642653e-10)
(-88.3219999999 0 3.59016116539e-10)
(-88.3220000002 0 1.02224510666e-10)
(-88.3220000002 0 -4.17494856351e-10)
(-88.322 0 -1.97146167091e-10)
(-88.322 0 7.02471402752e-10)
(-88.3219999999 0 8.71665610983e-10)
(-88.3220000002 0 -4.77435467104e-10)
(-88.3219999999 0 -4.98968395056e-10)
(-88.3219999998 0 -3.24406768137e-10)
(-88.3219999998 0 2.40947085704e-11)
(-88.3219999994 0 9.97683265623e-11)
(-88.3219999996 0 -2.7007799734e-10)
(-88.3220000008 0 3.73083074402e-10)
(-88.3220000001 0 4.32346263158e-10)
(-88.3219999994 0 -1.22874615328e-11)
(-88.3220000015 0 -3.17482763799e-10)
(-88.3220000005 0 6.67515464919e-11)
(-88.3219999997 0 7.40029308615e-11)
(-88.3220000002 0 7.7081121687e-11)
(-88.3219999992 0 -5.32628423042e-11)
(-88.3220000001 0 -4.65725304276e-12)
(-88.3220000001 0 -3.23043024169e-11)
(-88.3219999999 0 9.09093786939e-12)
(-88.3220000002 0 2.26054619135e-11)
(-88.3219999998 0 2.45666990683e-11)
(-88.322 0 -9.33995106743e-12)
(-88.322 0 6.97540646123e-12)
(-88.322 0 5.70374734195e-12)
(-88.322 0 4.47502838212e-12)
(-88.322 0 5.75050973444e-12)
(-88.3220000001 0 -3.36913296287e-11)
(-88.3219999999 0 1.75543940241e-10)
(-88.3220000001 0 -1.17424419856e-10)
(-88.3220000001 0 -6.17233937273e-11)
(-88.3219999998 0 -3.97028369707e-12)
(-88.3220000002 0 -1.17855988834e-11)
(-88.322 0 2.0540258675e-10)
(-88.3219999999 0 -3.76618037364e-10)
(-88.322000001 0 -3.51759589783e-10)
(-88.3220000002 0 2.79448975294e-10)
(-88.3219999994 0 2.31728457722e-10)
(-88.3220000006 0 2.45262120596e-11)
(-88.3219999988 0 2.99031598518e-10)
(-88.3219999984 0 -6.28044148697e-11)
(-88.3220000002 0 3.09743550296e-10)
(-88.3220000004 0 -2.746094799e-10)
(-88.3220000006 0 -7.4641716886e-11)
(-88.3220000008 0 -1.9712127871e-10)
(-88.3220000002 0 3.4987976375e-10)
(-88.3219999994 0 2.01473702218e-11)
(-88.3219999988 0 -1.35214433765e-10)
(-88.322000001 0 2.55247546996e-11)
(-88.3220000001 0 1.25417750081e-11)
(-88.3219999989 0 2.27567569829e-11)
(-88.3220000015 0 -5.16705461896e-11)
(-88.3220000007 0 3.46407948568e-11)
(-88.3219999993 0 -9.48721589734e-11)
(-88.3220000001 0 -1.46911326374e-10)
(-88.322 0 3.68594445811e-10)
(-88.3219999998 0 -3.70690889295e-10)
(-88.3220000007 0 -3.84135179514e-10)
(-88.3219999993 0 -6.46415712995e-11)
(-88.3219999988 0 -1.10595645868e-10)
(-88.3220000001 0 -2.41623189339e-11)
(-88.3220000006 0 -1.1617852583e-10)
(-88.3220000014 0 -7.60884627133e-11)
(-88.3220000002 0 8.6070090686e-12)
(-88.3219999987 0 -5.49840551563e-12)
(-88.321999999 0 6.4513470836e-13)
(-88.322000001 0 -8.03940177188e-12)
(-88.3220000015 0 -6.49125851319e-12)
(-88.322 0 5.90526144949e-11)
(-88.321999999 0 -6.32288084463e-11)
(-88.3219999993 0 3.22898139509e-11)
(-88.3220000006 0 -2.080217465e-10)
(-88.3219999997 0 -2.50398257724e-10)
(-88.3219999993 0 -4.27844877261e-10)
(-88.3220000005 0 1.60759360174e-10)
(-88.3220000014 0 -3.46196415573e-10)
(-88.3220000002 0 -3.14356970688e-10)
(-88.3219999991 0 6.31064226922e-10)
(-88.3219999999 0 1.71721232509e-10)
(-88.3220000002 0 -1.36830524341e-10)
(-88.3220000002 0 -2.75418679781e-10)
(-88.3219999998 0 -1.44810531843e-10)
(-88.3219999999 0 5.07245291951e-10)
(-88.322 0 -7.19990014876e-11)
(-88.322 0 -1.15991796653e-10)
(-88.322 0 2.47147690315e-11)
(-88.322 0 4.69400888359e-11)
(-88.322 0 -9.25481161488e-11)
(-88.322 0 3.08780987515e-11)
(-88.322 0 2.64475662015e-11)
(-88.3220000001 0 3.71674537638e-12)
(-88.3219999998 0 6.74980042966e-13)
(-88.322 0 -1.13150075786e-11)
(-88.3220000002 0 1.71698986851e-11)
(-88.322 0 -1.37294361789e-11)
(-88.3219999999 0 6.13925598451e-11)
(-88.3220000001 0 -3.11780023838e-11)
(-88.3220000001 0 6.94544870192e-11)
(-88.3219999999 0 -7.87695791284e-11)
(-88.322 0 4.18186959238e-11)
(-88.3220000001 0 3.11680559682e-10)
(-88.3219999999 0 8.10987913442e-11)
(-88.3219999999 0 5.37483094641e-11)
(-88.322 0 4.28592317982e-10)
(-88.322 0 -4.05266869352e-10)
(-88.3219999998 0 -3.04588225315e-10)
(-88.3219999998 0 9.25341887714e-11)
(-88.3220000001 0 1.79061622092e-10)
(-88.3220000002 0 -8.70801473861e-11)
(-88.322 0 5.90661723673e-11)
(-88.3220000002 0 1.36060105244e-10)
(-88.3219999999 0 -2.57281204932e-10)
(-88.322 0 -4.74417996065e-10)
(-88.322 0 2.07145692309e-10)
(-88.3220000001 0 -4.15703363285e-10)
(-88.3219999999 0 -3.41631998069e-10)
(-88.3220000001 0 3.05767806549e-10)
(-88.3220000004 0 7.82470511474e-12)
(-88.321999999 0 -9.30401938589e-11)
(-88.3220000006 0 3.84649999233e-11)
(-88.3220000018 0 -9.78058944951e-11)
(-88.3219999993 0 -8.5167598435e-11)
(-88.3219999993 0 2.46126626883e-10)
(-88.3219999998 0 -4.20948399568e-10)
(-88.3219999999 0 -3.23471593022e-10)
(-88.3219999999 0 -3.49049243415e-10)
(-88.3219999999 0 -4.55306902554e-11)
(-88.322 0 3.15548829437e-10)
(-88.322 0 2.61748336298e-11)
(-88.322 0 -3.29386724783e-10)
(-88.3219999999 0 -4.98906184899e-10)
(-88.3220000001 0 1.24115469531e-10)
(-88.322 0 2.10599937381e-10)
(-88.3219999999 0 1.34939534938e-10)
(-88.3220000001 0 -2.51930144002e-10)
(-88.3219999999 0 -2.26086517717e-10)
(-88.3220000001 0 2.140834109e-11)
(-88.322 0 -3.67314260555e-10)
(-88.322 0 -3.1616848002e-10)
(-88.3220000002 0 -1.12251102876e-10)
(-88.3219999995 0 3.59574984574e-10)
(-88.3219999997 0 -4.3218950258e-11)
(-88.3220000013 0 -4.00018798222e-11)
(-88.3220000011 0 -8.33187044066e-11)
(-88.3219999992 0 -3.02312341065e-11)
(-88.3219999984 0 1.30382696222e-10)
(-88.322 0 -1.90791447763e-11)
(-88.3220000011 0 3.0298414926e-11)
(-88.322 0 -1.98955167662e-11)
(-88.3219999994 0 -9.27771155283e-12)
(-88.3220000002 0 2.49157623514e-11)
(-88.322 0 2.30797440952e-13)
(-88.3219999998 0 -8.69768051679e-12)
(-88.322 0 -2.93820592821e-11)
(-88.322 0 -1.70483981391e-11)
(-88.3220000001 0 2.87026990227e-11)
(-88.3219999999 0 -1.14863893429e-10)
(-88.3220000001 0 2.34907964117e-11)
(-88.322 0 4.88672600248e-11)
(-88.3219999998 0 -7.9478801283e-11)
(-88.3220000001 0 -5.63543670499e-11)
(-88.322 0 4.14059278787e-11)
(-88.3219999999 0 4.042028492e-10)
(-88.3220000003 0 4.1753266871e-10)
(-88.3220000002 0 -2.90281790688e-10)
(-88.3219999999 0 -2.54646167497e-10)
(-88.3219999999 0 -1.12623928158e-10)
(-88.3219999997 0 -3.66939116396e-10)
(-88.3219999998 0 1.15838439304e-10)
(-88.3219999992 0 -3.27038043654e-10)
(-88.3219999995 0 3.11283849607e-10)
(-88.3220000011 0 -9.09833291782e-11)
(-88.3220000004 0 9.35520071428e-11)
(-88.3220000001 0 -1.88631463695e-10)
(-88.3220000001 0 -2.6942567161e-11)
(-88.322 0 -3.65554303334e-11)
(-88.322 0 -2.08153047135e-11)
(-88.322 0 -4.73573866143e-11)
(-88.322 0 3.9650589969e-11)
(-88.322 0 2.19496890126e-11)
(-88.322 0 -5.83758767574e-11)
(-88.3220000001 0 9.07317937636e-11)
(-88.322 0 1.33864607952e-10)
(-88.322 0 -4.01945354123e-10)
(-88.322 0 4.71327092722e-10)
(-88.322 0 5.08595402965e-10)
(-88.322 0 9.7864225962e-11)
(-88.322 0 1.09155000314e-10)
(-88.322 0 5.49647506257e-12)
(-88.322 0 4.18184850569e-11)
(-88.322 0 -3.70890641596e-12)
(-88.322 0 9.24228704335e-12)
(-88.322 0 1.62373701807e-12)
(-88.322 0 -1.52335161602e-11)
(-88.322 0 1.67022966842e-11)
(-88.322 0 1.091823606e-11)
(-88.322 0 6.17181882979e-11)
(-88.322 0 -2.43614417393e-11)
(-88.322 0 -3.51857475589e-11)
(-88.322 0 2.59771758835e-11)
(-88.322 0 -1.91549731146e-11)
(-88.322 0 9.07003155985e-12)
(-88.322 0 -9.41712121917e-11)
(-88.322 0 3.5390360149e-11)
(-88.322 0 -1.95930266505e-11)
(-88.322 0 -1.04715696887e-10)
(-88.322 0 2.12455865481e-10)
(-88.3220000002 0 -2.0477878441e-11)
(-88.3219999999 0 8.98175839562e-11)
(-88.3219999998 0 -1.06773929144e-10)
(-88.3220000001 0 -6.48113435688e-10)
(-88.322 0 1.06183711572e-10)
(-88.322 0 2.41630641286e-10)
(-88.322 0 -4.23679677713e-13)
(-88.322 0 -4.56884207641e-11)
(-88.322 0 1.00855906785e-10)
(-88.322 0 -4.974670427e-11)
(-88.322 0 -1.9498640614e-11)
(-88.322 0 -1.66925924786e-11)
(-88.322 0 -3.13200707796e-11)
(-88.322 0 6.88226695763e-11)
(-88.3219999999 0 -4.13631272662e-14)
(-88.3220000002 0 1.08695273971e-10)
(-88.3220000001 0 -2.79580700484e-11)
(-88.3219999998 0 -2.98735984865e-11)
(-88.3219999992 0 -9.32354523708e-11)
(-88.3219999992 0 7.89840777156e-11)
(-88.3220000015 0 9.10324154349e-11)
(-88.3220000015 0 -2.36058334404e-10)
(-88.3219999995 0 -9.17431051893e-11)
(-88.3220000002 0 -9.41429157549e-11)
(-88.3219999996 0 -6.45714877433e-11)
(-88.3219999998 0 2.03162881557e-11)
(-88.3219999995 0 6.75219781973e-11)
(-88.3219999994 0 -8.55398199374e-10)
(-88.3220000005 0 -6.22679652882e-10)
(-88.322 0 -2.00224040552e-10)
(-88.3219999997 0 6.13274090653e-11)
(-88.3219999999 0 1.09061990605e-10)
(-88.3219999999 0 -1.00534801291e-10)
(-88.322 0 -3.2686752394e-11)
(-88.3219999999 0 3.19564460903e-11)
(-88.3219999999 0 3.66640313017e-11)
(-88.3220000001 0 -6.64691607141e-11)
(-88.322 0 -8.1047240457e-11)
(-88.322 0 -2.68517238954e-11)
(-88.322 0 -3.55700897866e-11)
(-88.322 0 -1.1890638356e-11)
(-88.322 0 -1.13243510239e-11)
(-88.322 0 -6.85390488016e-12)
(-88.322 0 -1.37367003129e-11)
(-88.322 0 -2.06816047506e-11)
(-88.322 0 -2.38037883763e-11)
(-88.322 0 -1.77775904521e-11)
(-88.322 0 -9.74816623181e-12)
(-88.322 0 3.48126869455e-11)
(-88.322 0 -1.37159108788e-10)
(-88.3219999999 0 -5.26478822629e-11)
(-88.3219999999 0 3.2772465619e-10)
(-88.322 0 2.5523872352e-10)
(-88.3220000001 0 -3.87610628799e-10)
(-88.322 0 -3.15865211928e-10)
(-88.322 0 -1.19402296676e-10)
(-88.3219999999 0 3.49494389738e-11)
(-88.3220000001 0 -1.12365270975e-10)
(-88.3220000001 0 7.26530638355e-11)
(-88.322 0 -1.26915109232e-10)
(-88.3220000001 0 -3.73389315803e-10)
(-88.3219999998 0 -2.64400448023e-10)
(-88.3219999992 0 1.03924337701e-10)
(-88.322000001 0 -3.46509330569e-10)
(-88.3220000013 0 -3.90507555298e-10)
(-88.3219999994 0 -3.80036356588e-10)
(-88.322 0 3.86287576872e-10)
(-88.3219999995 0 3.1135304933e-10)
(-88.3219999993 0 -3.3794838185e-10)
(-88.3220000002 0 -2.41029192911e-10)
(-88.322 0 4.0540621605e-10)
(-88.322 0 7.92826037972e-11)
(-88.322 0 -2.68238917703e-10)
(-88.322 0 -4.34807366549e-10)
(-88.322 0 2.47525823307e-10)
(-88.3220000001 0 -2.18215815108e-10)
(-88.322 0 -1.96531925936e-11)
(-88.3219999999 0 -4.49107288673e-10)
(-88.322 0 4.10493729492e-10)
(-88.3220000001 0 -6.04638512213e-11)
(-88.322 0 4.06744491513e-11)
(-88.3220000003 0 1.39950089491e-10)
(-88.3219999998 0 -2.92371575541e-10)
(-88.3219999996 0 -6.88269510682e-10)
(-88.3220000009 0 -7.72930301964e-10)
(-88.3220000005 0 -2.55692161023e-10)
(-88.3219999996 0 7.6066712955e-10)
(-88.3219999999 0 4.70414907744e-10)
(-88.3219999995 0 -6.81704528077e-11)
(-88.3219999995 0 -4.90473367694e-10)
(-88.322000001 0 5.12718284195e-10)
(-88.3220000009 0 -1.48080804815e-11)
(-88.3219999997 0 -1.35590137789e-10)
(-88.3219999996 0 -2.5999336347e-12)
(-88.322 0 9.64279960029e-11)
(-88.3220000004 0 5.60280385304e-11)
(-88.3220000003 0 1.22051909991e-10)
(-88.3219999998 0 -1.58326820921e-10)
(-88.3219999999 0 9.90458855655e-11)
(-88.3220000002 0 -1.7634975703e-10)
(-88.3220000002 0 1.18727299602e-10)
(-88.3219999999 0 1.42872165325e-10)
(-88.322 0 -1.41821843335e-10)
(-88.322 0 -3.3282442626e-10)
(-88.322 0 -1.44244520397e-10)
(-88.322 0 -3.68626309954e-10)
(-88.322 0 -3.90689685864e-10)
(-88.322 0 -1.94951080336e-10)
(-88.322 0 7.15875621579e-11)
(-88.322 0 3.09185960165e-11)
(-88.322 0 6.82280008397e-11)
(-88.3219999999 0 -2.36925233622e-10)
(-88.3220000003 0 -5.18197387908e-10)
(-88.3220000002 0 2.45697701598e-10)
(-88.321999999 0 2.80471858616e-10)
(-88.3219999994 0 5.99302732029e-10)
(-88.3220000015 0 -3.3551879859e-10)
(-88.3220000011 0 -2.62373949963e-10)
(-88.3219999995 0 2.34057853424e-10)
(-88.3219999993 0 2.04506916951e-10)
(-88.322 0 2.14753000805e-10)
(-88.322 0 9.23919374548e-11)
(-88.3220000001 0 1.82538521476e-10)
(-88.3220000008 0 8.62746036294e-11)
(-88.3220000002 0 -4.94018278378e-12)
(-88.321999999 0 6.1309989506e-11)
(-88.3220000002 0 -8.34541533133e-11)
(-88.322000001 0 -3.4624827688e-10)
(-88.3220000003 0 3.98243570699e-10)
(-88.3219999983 0 5.60870522237e-10)
(-88.3219999984 0 3.38838727565e-10)
(-88.3220000015 0 5.84555617203e-10)
(-88.3220000011 0 -3.12991197091e-10)
(-88.3219999986 0 -4.49318636485e-12)
(-88.3219999994 0 7.87730177361e-12)
(-88.3220000013 0 -3.12832709776e-11)
(-88.322000001 0 4.07386787751e-11)
(-88.3219999989 0 -4.59067160846e-11)
(-88.3219999996 0 1.80364167237e-11)
(-88.3220000005 0 -7.09823194956e-11)
(-88.3220000004 0 -1.91602665135e-10)
(-88.3219999991 0 1.69769834962e-10)
(-88.3219999991 0 2.11837809996e-10)
(-88.3220000009 0 2.92727046128e-10)
(-88.3219999997 0 -2.91903183517e-10)
(-88.3220000004 0 -3.11856776847e-10)
(-88.3220000008 0 4.25329770585e-10)
(-88.3220000001 0 2.13897825448e-11)
(-88.3220000006 0 8.27932793341e-11)
(-88.3219999985 0 3.06506679073e-10)
(-88.3219999981 0 4.48710664977e-10)
(-88.3220000017 0 4.67657460524e-10)
(-88.3220000014 0 -1.56437224407e-10)
(-88.3219999986 0 -2.10290438129e-10)
(-88.3219999985 0 -1.81408202927e-10)
(-88.3220000007 0 3.60347550919e-10)
(-88.3220000005 0 2.87470191325e-10)
(-88.3219999995 0 2.24273759557e-10)
(-88.322 0 -1.25423443897e-10)
(-88.3219999999 0 -1.68135030584e-10)
(-88.3220000003 0 7.9450364833e-11)
(-88.322 0 -2.0791478636e-11)
(-88.3219999999 0 -2.44527375078e-11)
(-88.3219999999 0 -5.67625940703e-11)
(-88.3219999995 0 5.47065814198e-11)
(-88.3220000005 0 4.90115387123e-11)
(-88.3220000009 0 1.86599795885e-11)
(-88.322 0 -1.90489753786e-11)
(-88.322 0 -1.53123961875e-10)
(-88.3220000004 0 -2.82646704219e-11)
(-88.3219999997 0 -5.46495153424e-11)
(-88.3219999992 0 -5.75495097143e-11)
(-88.3219999995 0 3.84948418704e-11)
(-88.322 0 -5.04409814098e-11)
(-88.3220000005 0 -1.53205405802e-11)
(-88.3220000012 0 7.3192348631e-12)
(-88.3219999991 0 -5.54052713328e-11)
(-88.3219999984 0 1.49223353832e-10)
(-88.3219999992 0 2.23314571774e-11)
(-88.3220000012 0 -2.51391914575e-10)
(-88.3220000018 0 -1.88193849507e-10)
(-88.321999999 0 2.88416395502e-10)
(-88.3219999991 0 3.69052408908e-10)
(-88.322 0 1.25230040905e-10)
(-88.3220000001 0 -2.677484461e-11)
(-88.3220000001 0 1.16207015914e-10)
(-88.3220000002 0 -5.13700284933e-11)
(-88.3220000003 0 1.35238548055e-10)
(-88.3220000001 0 3.71763669409e-10)
(-88.322 0 2.66245262373e-10)
(-88.3219999999 0 -1.13578958352e-10)
(-88.3220000001 0 3.90420350215e-10)
(-88.3219999996 0 2.98290069598e-10)
(-88.3219999994 0 4.85110373165e-10)
(-88.322 0 -4.17142581699e-10)
(-88.3220000009 0 -2.97961414297e-10)
(-88.3220000004 0 4.39049683503e-10)
(-88.3219999996 0 2.36121542251e-10)
(-88.322 0 -3.97771100505e-10)
(-88.322 0 -7.36919375687e-11)
(-88.322 0 2.59815093252e-10)
(-88.322 0 4.40475816127e-10)
(-88.322 0 -3.1733155652e-10)
(-88.3220000005 0 1.99604087436e-10)
(-88.3219999995 0 -2.52322274567e-12)
(-88.321999999 0 4.45569451955e-10)
(-88.3219999998 0 -4.21698674807e-10)
(-88.3220000011 0 2.0347896266e-11)
(-88.3220000012 0 7.57868362956e-11)
(-88.3219999989 0 -3.32893980438e-10)
(-88.3219999992 0 8.99810145519e-11)
(-88.3220000003 0 5.85433115941e-10)
(-88.3220000004 0 5.2786493505e-10)
(-88.3219999998 0 2.66759721427e-10)
(-88.3219999994 0 -3.66443690974e-10)
(-88.322000001 0 -4.85315959263e-10)
(-88.3220000007 0 4.12467003938e-10)
(-88.3219999996 0 3.39490396889e-10)
(-88.3219999999 0 -2.38293763826e-10)
(-88.3219999999 0 -3.91021502098e-10)
(-88.3219999999 0 9.39085912569e-11)
(-88.322 0 -1.29082363687e-10)
(-88.322 0 -1.20605291964e-11)
(-88.322 0 6.45331458184e-11)
(-88.322 0 -9.76841077121e-11)
(-88.322 0 1.51806227727e-10)
(-88.322 0 -4.42702286294e-11)
(-88.322 0 1.25422000258e-10)
(-88.322 0 -1.37209416774e-10)
(-88.322 0 -8.35792553455e-11)
(-88.3220000001 0 -1.26293889051e-10)
(-88.3220000002 0 -3.20324835076e-12)
(-88.322 0 2.39319047607e-10)
(-88.3219999998 0 1.31273533584e-10)
(-88.322 0 -8.74568566901e-11)
(-88.3219999999 0 -1.96097548786e-10)
(-88.322 0 6.40817351207e-11)
(-88.3220000001 0 8.15072542606e-11)
(-88.3219999999 0 -1.23711538512e-10)
(-88.322 0 2.46890712163e-10)
(-88.322 0 5.13821509217e-10)
(-88.322 0 -2.35273268856e-10)
(-88.3219999999 0 -2.90592326492e-10)
(-88.3219999998 0 -6.1500088074e-10)
(-88.3220000003 0 2.79833730975e-10)
(-88.322 0 2.45469267917e-10)
(-88.3219999998 0 -2.37040085509e-10)
(-88.3220000001 0 -2.02872830706e-10)
(-88.322 0 -2.25025415922e-10)
(-88.322 0 -1.42329950787e-10)
(-88.322 0 -1.46749774197e-10)
(-88.322 0 -7.35569680761e-11)
(-88.322 0 6.01781961127e-11)
(-88.322 0 9.84697536382e-11)
(-88.3219999999 0 -1.22962386391e-10)
(-88.3220000002 0 2.24836421596e-10)
(-88.3220000001 0 -2.58563255338e-10)
(-88.3219999998 0 -4.34530214616e-10)
(-88.322 0 -3.74498803224e-10)
(-88.3219999998 0 -3.70859935575e-11)
(-88.3220000001 0 -1.2921062998e-10)
(-88.3220000003 0 -3.6309721366e-10)
(-88.322 0 2.19737180341e-10)
(-88.322 0 2.60436826534e-10)
(-88.322 0 -3.00247794562e-10)
(-88.3220000001 0 1.38304753906e-11)
(-88.3220000001 0 -4.13951634859e-10)
(-88.3219999999 0 -3.79124166154e-10)
(-88.322 0 1.70489248829e-11)
(-88.322 0 -5.36432004837e-10)
(-88.322 0 -3.05746089234e-10)
(-88.3219999999 0 -3.34626553097e-10)
(-88.3220000004 0 2.0084703817e-10)
(-88.3220000004 0 2.85343937509e-10)
(-88.321999999 0 -3.88482860286e-10)
(-88.3219999993 0 -4.36374895259e-11)
(-88.3220000013 0 -3.46084369976e-10)
(-88.3220000003 0 2.44486231757e-10)
(-88.3219999996 0 -3.69141515462e-10)
(-88.3220000002 0 -6.881299518e-10)
(-88.3219999998 0 -2.12391404101e-10)
(-88.3219999999 0 3.40300968486e-11)
(-88.322 0 1.83462554519e-10)
(-88.322 0 3.31551890175e-11)
(-88.322 0 2.45759731657e-12)
(-88.322 0 6.65926528939e-12)
(-88.3219999999 0 6.82561269296e-11)
(-88.3220000001 0 -2.45059115431e-10)
(-88.3220000001 0 -8.69198126729e-11)
(-88.3219999999 0 3.7323051327e-11)
(-88.322 0 -7.1712301548e-11)