/*--------------------------------*- C++ -*----------------------------------*\
  =========                 |
  \\      /  F ield         | OpenFOAM: The Open Source CFD Toolbox
   \\    /   O peration     | Website:  https://openfoam.org
    \\  /    A nd           | Version:  6
     \\/     M anipulation  |
\*---------------------------------------------------------------------------*/
FoamFile
{
    version     2.0;
    format      ascii;
    class       volScalarField;
    location    "3.6e-05";
    object      p;
}
// * * * * * * * * * * * * * * * * * * * * * * * * * * * * * * * * * * * * * //

dimensions      [1 -1 -2 0 0 0 0];

internalField   nonuniform List<scalar> 
8192
(
6000000.0014
5999999.99941
6000000.00055
6000000.0003
6000000.00172
5999999.9986
6000000.0003
5999999.99996
6000000.00004
6000000.00001
6000000.00007
6000000.00004
6000000.00068
6000000.00018
6000000.00026
6000000.00011
6000000.00018
5999999.99985
5999999.99961
6000000.0001
5999999.99983
5999999.99933
6000000.00041
6000000.00004
5999999.99986
6000000.00001
5999999.99935
5999999.99942
5999999.99886
6000000.0002
5999999.99919
5999999.9998
5999999.99867
5999999.99702
6000000.0045
6000000.00551
5999999.99957
6000000.00485
5999999.99808
5999999.99886
6000000.00055
5999999.99979
6000000.00002
6000000.00003
6000000.0002
6000000.0001
6000000.00001
6000000.00003
5999999.99991
6000000.00011
5999999.9994
5999999.99956
6000000.0018
5999999.99781
5999999.9985
6000000.00234
6000000.0005
6000000.00176
5999999.99994
6000000.00273
5999999.99754
5999999.99767
5999999.99745
5999999.99958
6000000.00008
6000000.00049
5999999.99994
6000000.00118
5999999.99879
6000000.00093
5999999.99977
5999999.99957
6000000.00166
6000000.0041
6000000.00495
5999999.99724
5999999.99386
6000000.00582
6000000.00365
5999999.99664
5999999.99831
5999999.99573
6000000.0031
6000000.00362
5999999.99885
5999999.99879
6000000.00385
6000000.00474
5999999.99856
5999999.99896
5999999.9991
5999999.9995
5999999.99853
6000000.00125
5999999.9991
6000000.00045
6000000.00043
5999999.99978
6000000.00154
5999999.9993
6000000.00005
5999999.99996
5999999.99989
6000000.00001
5999999.9998
6000000.00012
6000000.00007
6000000.00001
5999999.99998
5999999.99998
6000000.00002
6000000.00001
5999999.99998
6000000.00017
6000000.00001
6000000.00035
6000000.00024
5999999.99973
5999999.99999
6000000.00001
5999999.99968
5999999.99949
6000000.00003
5999999.99994
6000000.00015
6000000
6000000.00015
6000000.00015
6000000.00455
6000000.00044
5999999.99996
6000000.00046
6000000.0004
5999999.99985
6000000.00002
5999999.99997
6000000.00003
6000000.00027
5999999.99967
6000000.00178
6000000.0007
6000000.00161
6000000.00265
5999999.9974
5999999.99895
5999999.9984
6000000.0027
6000000.00165
6000000.0001
5999999.9987
5999999.99892
6000000.00107
5999999.99621
6000000.00258
5999999.9966
5999999.99815
5999999.99981
5999999.99974
5999999.99893
5999999.99958
6000000.00001
5999999.99983
6000000.00052
6000000.00064
5999999.99988
6000000.00183
6000000.00007
6000000.00009
5999999.99972
5999999.99996
5999999.99955
6000000.00111
6000000.00358
6000000.00229
6000000.00194
6000000.00206
6000000.00315
6000000.00094
5999999.99729
6000000.00086
6000000.00129
5999999.99853
6000000.0011
5999999.99879
6000000.00152
6000000.00169
6000000.00266
5999999.99468
5999999.9948
6000000.00275
6000000.00454
6000000.00231
5999999.9999
5999999.99998
6000000.00013
6000000.00004
5999999.99993
6000000.00001
5999999.99999
6000000.00001
6000000.00015
6000000.00001
6000000.00009
5999999.99966
5999999.99911
6000000.00059
6000000.00012
5999999.99999
6000000.00002
5999999.99998
6000000.00004
6000000.00007
6000000.00002
5999999.99963
5999999.99998
6000000.00003
5999999.9999
6000000
6000000
5999999.99899
5999999.99923
6000000.00095
5999999.99868
6000000.00047
6000000.00479
5999999.99634
5999999.99758
6000000.00229
6000000.00563
5999999.99328
5999999.99752
6000000.00222
6000000.00256
5999999.998
6000000.0024
6000000.00021
6000000.00275
5999999.99921
6000000.00353
6000000.00507
5999999.99562
6000000.00034
6000000.00288
5999999.99885
6000000.00422
5999999.9958
5999999.99997
6000000.00237
6000000.00184
6000000.00239
6000000.00098
6000000.00103
6000000.00099
5999999.99919
5999999.99969
5999999.99989
5999999.99936
5999999.99902
5999999.99995
5999999.99913
6000000.00172
5999999.99934
6000000.00004
5999999.99978
6000000.00002
5999999.99993
6000000.00008
6000000.00017
6000000.00037
5999999.99961
6000000.00002
6000000.00007
5999999.99996
6000000.0005
5999999.99854
5999999.99788
6000000.00328
6000000.00241
5999999.9956
5999999.99719
5999999.99839
5999999.99753
5999999.99878
5999999.99691
6000000.00058
6000000.0016
5999999.99875
6000000.00031
5999999.99946
6000000.00044
6000000.00005
5999999.9998
6000000.00046
5999999.99931
6000000.00049
5999999.99975
6000000.00001
6000000.00011
6000000.00001
6000000.00001
6000000.00002
6000000.00001
5999999.99977
6000000.00051
5999999.99869
5999999.99914
5999999.9999
5999999.99932
6000000.00263
5999999.99711
5999999.99656
6000000.00202
6000000.00235
5999999.99945
6000000.00275
5999999.9988
6000000.00327
5999999.99639
5999999.99833
5999999.99726
6000000.00358
6000000.00051
5999999.99857
6000000.00061
6000000.00002
6000000.00029
6000000.00003
5999999.99982
6000000.00003
6000000.00003
5999999.9997
6000000.00119
6000000.00087
6000000.00035
6000000.00032
6000000.00015
5999999.99929
5999999.99885
5999999.99989
6000000.00004
5999999.99994
5999999.99968
5999999.99921
6000000.00186
5999999.99873
6000000.00049
5999999.99842
5999999.9967
5999999.9966
6000000.00134
5999999.99719
5999999.99763
6000000.0047
5999999.99999
6000000.00303
6000000.00104
5999999.99788
6000000.00285
5999999.99867
6000000.00168
5999999.99993
6000000.00003
6000000.00022
6000000.00001
6000000.0002
6000000.00004
6000000.00012
6000000.00062
5999999.99969
6000000.00122
6000000.0005
5999999.99933
6000000.00121
5999999.99867
5999999.99999
6000000.00336
6000000.00031
6000000.00089
6000000.00461
5999999.99502
5999999.99644
5999999.99662
5999999.9991
5999999.99967
5999999.99997
6000000.00082
5999999.99713
5999999.99497
6000000.00194
5999999.9958
5999999.99774
6000000.00393
5999999.99971
5999999.99898
6000000.00043
5999999.99875
5999999.99882
6000000.00354
5999999.99579
5999999.99753
5999999.99655
5999999.99996
6000000.00369
6000000.00032
5999999.99721
5999999.99472
6000000.00141
6000000.001
6000000.00137
5999999.99904
5999999.99814
6000000.00095
5999999.99653
5999999.99666
5999999.99923
6000000.00351
5999999.99938
5999999.9996
5999999.99856
6000000.0005
6000000.00074
6000000
6000000.00004
5999999.9998
5999999.9999
6000000.0002
5999999.99998
5999999.99998
6000000.00001
5999999.99992
6000000.00073
5999999.99829
6000000.00034
5999999.99999
6000000.00003
5999999.99937
6000000.00048
6000000.00004
5999999.99962
6000000.00015
6000000.00042
5999999.99977
5999999.99995
6000000.00006
6000000.00012
5999999.99891
5999999.9986
5999999.99943
5999999.99896
6000000.00069
6000000.00053
6000000.00003
6000000
6000000
6000000.00075
5999999.99913
6000000.00138
6000000.0017
5999999.99445
6000000.00376
6000000.00285
6000000.00013
6000000.00111
5999999.99973
6000000.00084
6000000.00008
6000000
6000000.0001
6000000.00006
6000000
5999999.99953
6000000.00032
5999999.99923
5999999.99981
6000000.00029
5999999.99912
6000000.00086
5999999.99925
6000000.00043
6000000.0004
5999999.99851
5999999.99875
6000000.00312
6000000.00435
5999999.99983
5999999.99835
6000000.00014
6000000.002
5999999.9996
5999999.99933
6000000.0017
5999999.99954
6000000.00004
6000000.00001
6000000.00005
6000000.00081
5999999.99941
6000000.00145
5999999.99952
5999999.99969
6000000.00021
6000000.00004
5999999.99996
6000000.0014
6000000.00081
6000000.00081
6000000.0001
5999999.99932
5999999.99989
5999999.99555
5999999.99694
6000000.00108
5999999.99971
5999999.99936
5999999.99975
5999999.99937
5999999.99998
5999999.99993
6000000.00007
5999999.99974
6000000.00009
6000000.00001
6000000.00001
6000000.00006
5999999.99977
6000000.00018
6000000.00006
5999999.99991
5999999.99989
5999999.9999
6000000.00002
6000000.00004
5999999.9999
5999999.99989
5999999.99983
6000000.00001
5999999.99988
5999999.99993
5999999.99988
5999999.99993
6000000.00001
6000000.00001
5999999.99988
5999999.99998
6000000
5999999.99998
5999999.9995
6000000.00077
5999999.99919
5999999.9999
5999999.99989
6000000.00001
6000000.00003
5999999.99998
6000000.00001
6000000.00004
6000000.0002
6000000.0001
6000000.00001
6000000.00001
5999999.9999
5999999.99936
6000000.00127
5999999.99996
5999999.99969
5999999.99669
5999999.99511
6000000.00189
6000000.00233
6000000.00039
6000000.00386
5999999.99802
6000000.00298
5999999.9958
6000000.00049
5999999.99808
6000000.00081
6000000.0007
6000000.0009
6000000
6000000.00087
5999999.9993
6000000.00008
6000000.00001
6000000.00002
6000000.00018
6000000.00003
5999999.99998
5999999.99971
6000000.00021
6000000.00003
6000000
6000000.00001
5999999.99993
5999999.99994
6000000.00002
5999999.99997
5999999.99959
5999999.99939
5999999.99952
5999999.99969
5999999.99994
5999999.99978
5999999.99957
6000000.00046
6000000.00054
5999999.99972
6000000.00093
5999999.99917
5999999.99731
6000000.00437
6000000.00283
6000000.00083
6000000.00374
5999999.99837
5999999.99981
6000000.00005
6000000
6000000.00003
6000000.00002
6000000.00022
6000000.00009
6000000.00058
5999999.99961
5999999.99986
5999999.99997
6000000.00005
6000000.00004
6000000.00152
5999999.99899
5999999.99882
6000000.00346
6000000.0014
6000000.00155
6000000.00068
5999999.99865
5999999.99883
6000000.00414
6000000.00267
6000000.0026
5999999.99885
5999999.99818
6000000.00126
5999999.99977
5999999.99978
5999999.99932
6000000.001
6000000.00041
6000000.00015
6000000.00026
5999999.99988
6000000.00018
5999999.99991
6000000.00021
6000000.00044
6000000.00019
6000000.00003
5999999.99993
5999999.99901
6000000.00196
6000000.00067
5999999.99718
5999999.997
6000000.00417
6000000.00215
6000000.00057
5999999.99952
6000000.00111
5999999.99913
6000000.00072
6000000.00319
6000000.00218
5999999.99789
6000000.0027
6000000.00192
6000000.00351
5999999.99574
5999999.99849
6000000.00241
6000000.00115
5999999.99445
5999999.9992
6000000.00056
6000000.00432
5999999.998
6000000.00242
6000000.00007
6000000.00435
5999999.99621
6000000.00058
6000000.00058
5999999.998
6000000.00256
6000000.00275
6000000.00267
6000000.00626
5999999.99407
5999999.99697
6000000.00364
6000000.00322
5999999.99714
5999999.99559
6000000.00136
5999999.9984
6000000.00003
6000000.00015
5999999.99926
6000000.00227
5999999.99949
6000000.00186
5999999.99849
5999999.99833
6000000.00149
6000000.00338
6000000.0006
6000000.00316
6000000.00276
6000000.00137
5999999.99928
6000000.00007
5999999.99929
6000000.00164
6000000.00584
5999999.99743
5999999.99854
5999999.99371
6000000.00299
6000000.00239
5999999.99687
5999999.99782
5999999.99747
5999999.99844
5999999.99813
5999999.99964
5999999.9995
6000000.00015
5999999.9999
5999999.99958
6000000.00059
5999999.9975
5999999.99801
5999999.99816
6000000.00221
6000000
6000000
6000000.0005
5999999.99939
6000000.00041
6000000.00008
6000000.00091
6000000.00306
5999999.99789
5999999.99771
5999999.99653
6000000.00299
6000000.00305
5999999.99626
5999999.99888
5999999.99787
6000000.0006
5999999.99716
5999999.99713
6000000.00261
6000000.00122
6000000.00056
6000000.00082
5999999.99998
6000000.00015
6000000.00004
6000000.00004
6000000.00001
5999999.99998
5999999.99993
5999999.99993
6000000.00015
6000000.00001
5999999.99996
6000000.00034
6000000.00172
6000000.00045
6000000.00014
6000000.00072
5999999.99941
6000000.00086
6000000.00035
5999999.99983
5999999.99994
6000000.0001
6000000.00047
5999999.99917
5999999.99858
6000000.0017
5999999.99916
6000000.00001
5999999.99988
5999999.99993
5999999.99989
6000000.00001
5999999.99988
6000000.00002
5999999.99997
5999999.99913
6000000.00126
5999999.99984
5999999.99957
5999999.99993
5999999.99805
6000000.0002
6000000.00006
6000000.00004
6000000.00001
5999999.99993
6000000.00088
6000000.00034
5999999.99997
6000000.00021
5999999.99986
6000000.00013
5999999.99887
6000000.00199
6000000.00199
5999999.99788
5999999.99794
6000000.00259
5999999.99858
6000000.00113
5999999.99984
6000000.00002
6000000.00001
5999999.99982
6000000.00002
5999999.99988
6000000.00011
5999999.99922
6000000.00062
6000000.00009
6000000
5999999.99991
6000000.00037
5999999.99886
6000000.00279
6000000.00335
5999999.99837
6000000.00167
6000000.00305
6000000.00367
5999999.99794
5999999.99864
6000000.00093
5999999.9999
6000000.00001
6000000.00007
5999999.99994
5999999.99993
5999999.99998
6000000.00001
5999999.99991
5999999.99994
5999999.99991
5999999.99998
5999999.9998
6000000.00047
5999999.99906
5999999.99897
6000000.00163
5999999.99707
6000000.00329
6000000.00197
6000000.00149
5999999.9987
6000000.00268
6000000.00339
5999999.99819
5999999.99765
6000000.00329
5999999.99989
6000000.00435
6000000.0045
6000000.00134
6000000.00366
6000000.00001
6000000.00004
6000000.00123
6000000.00051
6000000.00071
5999999.99983
6000000.00261
5999999.99785
6000000.00081
6000000.00264
6000000.00354
6000000.00056
5999999.99852
6000000.00026
6000000.00001
6000000.00001
5999999.99955
6000000.00306
6000000.00108
5999999.99927
6000000.00097
6000000.00028
5999999.99991
6000000.0006
5999999.9993
6000000.00118
5999999.99383
6000000.00333
6000000.00322
5999999.99953
6000000.00018
6000000.00037
6000000.0002
6000000.00008
6000000
6000000.00001
6000000
6000000
5999999.99989
6000000.00001
5999999.99988
6000000
6000000.00001
5999999.99989
6000000.00015
5999999.99998
5999999.99988
6000000.00001
5999999.99994
5999999.99972
6000000.00011
6000000.00002
6000000.00022
5999999.99919
5999999.99844
5999999.99967
6000000.00005
5999999.99986
6000000.00004
5999999.99989
6000000.00069
6000000.00042
6000000.00007
6000000.00005
5999999.99993
5999999.99951
6000000.00076
5999999.99742
6000000.00372
5999999.99688
5999999.99743
6000000.00378
6000000.00208
6000000.00319
6000000.00035
5999999.99976
5999999.99718
5999999.99691
5999999.99789
6000000.00008
5999999.99677
6000000.00156
5999999.99986
5999999.99944
6000000.00022
5999999.99885
6000000.00085
5999999.99842
6000000.00234
5999999.99695
5999999.99626
6000000.00353
5999999.99758
5999999.99728
5999999.99875
6000000.00049
6000000.00059
6000000.00028
6000000.00001
6000000.00028
5999999.99988
6000000.00116
5999999.99829
6000000.00057
6000000.00005
6000000.00021
5999999.99805
5999999.99952
5999999.99963
5999999.99902
5999999.99941
5999999.99977
5999999.99999
6000000.0001
6000000.0004
5999999.99985
5999999.99963
6000000.00085
5999999.99994
6000000.00001
5999999.99998
6000000.00001
6000000.00001
6000000.00011
6000000.00001
6000000.00001
6000000.00007
6000000.0002
5999999.99974
6000000.00001
5999999.99998
6000000.00001
6000000.00001
6000000.00014
5999999.99939
6000000.00074
6000000.00134
5999999.99751
6000000.00375
5999999.99647
5999999.99545
6000000.00262
6000000.00266
5999999.99629
5999999.99922
5999999.99957
5999999.99972
6000000.00039
5999999.99954
6000000.00107
5999999.99895
5999999.9994
6000000.00001
5999999.99972
6000000.00071
5999999.99914
6000000.001
6000000.00202
5999999.99714
5999999.99748
5999999.99793
5999999.99996
6000000.00346
6000000.00178
5999999.99566
5999999.99463
6000000.00485
6000000.00282
5999999.99642
5999999.99793
6000000.002
6000000.00219
5999999.99718
5999999.99943
6000000.00116
5999999.99986
6000000.00004
6000000.00001
6000000.00001
6000000.00008
6000000.00038
5999999.99982
5999999.99975
6000000.00001
6000000.00001
6000000.0002
6000000.00003
6000000.00001
5999999.9998
5999999.99928
6000000.00027
6000000.00001
6000000.00002
6000000.00001
6000000.00001
5999999.99982
6000000.00001
6000000.00003
5999999.99995
5999999.99965
6000000.00002
6000000.00095
5999999.99895
6000000.00008
6000000.00012
5999999.99762
6000000.00205
6000000.00051
6000000.00103
6000000.00057
6000000.00046
6000000.00025
6000000.0003
5999999.9992
6000000.00151
5999999.99945
6000000.00112
6000000.00261
6000000.003
5999999.99845
5999999.99855
6000000.00354
6000000.00149
6000000.00148
6000000.00094
5999999.99777
5999999.99944
6000000.00007
6000000.00018
5999999.99937
5999999.99892
6000000.00029
5999999.99827
5999999.99974
5999999.99828
5999999.99974
6000000.0009
5999999.99988
5999999.99955
5999999.99967
6000000.00001
5999999.99988
6000000.00006
6000000.00004
6000000.00001
5999999.99994
6000000.00008
6000000.00052
5999999.99892
5999999.99967
6000000.00005
6000000.00001
6000000.00007
6000000.00002
6000000.00007
6000000.00012
5999999.99974
6000000.00059
6000000.00112
5999999.99838
6000000.00246
5999999.99675
5999999.99972
6000000.00284
6000000.00394
6000000.00254
6000000.00163
6000000.00063
5999999.99717
5999999.99859
5999999.99916
5999999.99962
6000000.00045
6000000.00451
5999999.99587
5999999.99834
5999999.99608
6000000.00329
6000000.00149
6000000.00163
5999999.99995
6000000.00044
6000000.00052
6000000.00034
6000000.00048
5999999.99976
6000000.00002
6000000.00001
6000000
6000000.00007
5999999.99973
6000000.00079
5999999.99902
6000000.00107
5999999.9986
5999999.99749
5999999.99956
6000000.0008
5999999.9972
5999999.99716
6000000.00232
5999999.99779
5999999.99577
6000000.00279
6000000.00347
5999999.99732
6000000.00177
5999999.99961
5999999.99957
6000000.00151
6000000.00008
6000000.00004
6000000.00001
6000000.00001
6000000.00002
6000000.00001
6000000.00002
6000000.00001
6000000.00007
6000000.00017
6000000.00022
6000000.00003
6000000.00001
6000000.00001
5999999.99991
6000000.00107
5999999.9986
6000000.00211
6000000.00267
5999999.99967
6000000.00106
6000000.00043
6000000.00175
5999999.99967
6000000.00038
5999999.99769
6000000.00024
5999999.9994
6000000.00142
6000000.0004
6000000.00002
5999999.99964
5999999.99994
5999999.99992
6000000
5999999.99993
6000000.00031
6000000.00079
5999999.99982
6000000
5999999.99997
6000000.00011
6000000.00002
6000000
5999999.99998
5999999.99982
6000000.00043
6000000.0001
5999999.99825
6000000.00152
5999999.9991
6000000.00138
5999999.99993
5999999.99995
5999999.99998
5999999.99993
6000000.00079
5999999.99783
6000000.0003
6000000.00008
5999999.99995
6000000.00002
5999999.99974
5999999.99999
5999999.99994
6000000.00006
5999999.99988
5999999.99972
6000000.00013
5999999.99994
5999999.99993
6000000
6000000.00008
5999999.99994
6000000
6000000
5999999.99994
5999999.99997
6000000.00001
5999999.99993
6000000.00021
6000000.00001
6000000.00013
6000000.00003
6000000.0004
5999999.99926
6000000.00125
5999999.99818
6000000.00074
6000000.00049
6000000.00126
6000000.00181
5999999.99812
5999999.99978
5999999.99916
6000000.00003
5999999.99982
5999999.9995
6000000.00034
5999999.99918
5999999.99993
6000000.00003
5999999.99994
6000000.00128
6000000.00064
6000000.00151
5999999.99977
5999999.99957
6000000.00151
5999999.99726
6000000.00095
5999999.99839
6000000.00274
6000000.00363
5999999.99617
5999999.99874
5999999.99715
6000000.0028
6000000.00068
6000000.00377
5999999.9981
5999999.99647
6000000.00156
5999999.99633
5999999.99732
5999999.99817
5999999.99848
6000000.00038
5999999.99769
5999999.99867
5999999.99481
6000000.00061
5999999.99615
5999999.99708
5999999.99794
5999999.99727
5999999.99863
5999999.99675
6000000.00187
6000000.00027
5999999.99996
5999999.99873
6000000.00024
5999999.99993
5999999.99996
6000000.00015
5999999.99989
6000000.00033
5999999.99828
6000000.00174
5999999.99594
5999999.99426
6000000.00259
5999999.99616
5999999.99641
6000000.00296
5999999.9969
5999999.9963
6000000.00044
6000000.00001
6000000.00002
6000000.00017
6000000.00003
6000000.00001
6000000.00001
6000000.00019
5999999.99966
6000000.00028
6000000.00002
6000000.00001
6000000.00001
5999999.99993
5999999.99994
6000000.00008
6000000.00026
5999999.99981
5999999.99908
6000000.00058
5999999.9996
5999999.99994
5999999.99988
5999999.9998
5999999.99966
6000000.00036
5999999.99979
5999999.9995
5999999.99997
5999999.99966
6000000.00011
6000000.00035
5999999.99961
6000000.00015
6000000.00029
6000000.00149
5999999.99817
5999999.99897
6000000.00087
6000000.00018
6000000.00007
6000000.0003
5999999.99931
6000000.00092
6000000.00045
6000000.00026
5999999.99982
5999999.99993
5999999.99925
6000000.00083
6000000.00002
6000000.00053
5999999.99976
5999999.9999
6000000.00194
6000000.00295
5999999.9949
5999999.99561
6000000.00366
6000000.00079
6000000.0002
6000000.0003
6000000.00007
6000000.00144
5999999.99988
6000000.00017
5999999.99997
5999999.99992
6000000
6000000.00002
5999999.99999
5999999.99998
5999999.99999
6000000
6000000.00002
6000000.00011
6000000
6000000
6000000.00001
6000000
6000000.00011
6000000
6000000.00001
5999999.99994
5999999.99996
6000000.00011
6000000
6000000
6000000.00011
6000000
6000000
5999999.99993
6000000.00001
5999999.99994
6000000.00001
6000000.00008
5999999.99965
5999999.99973
5999999.99994
5999999.99997
6000000.00057
5999999.99997
6000000
5999999.99994
6000000.00004
6000000
6000000.00008
5999999.99994
6000000
6000000
5999999.99994
5999999.99998
6000000.00001
5999999.99982
6000000.00037
6000000.00027
5999999.99976
6000000.00059
5999999.99929
6000000.00102
6000000.00195
5999999.9982
5999999.99964
6000000.00307
5999999.99997
6000000.00002
6000000.00003
5999999.99988
6000000.00004
6000000.00006
6000000.00018
6000000.00004
6000000.00003
6000000.00003
5999999.99988
6000000.00015
6000000.00015
6000000.0002
6000000.00003
5999999.99989
6000000.00001
5999999.99993
6000000.00001
6000000.00002
5999999.99999
5999999.99974
5999999.99906
6000000.00161
5999999.99952
6000000.00104
5999999.99886
5999999.99932
5999999.99989
5999999.99943
5999999.9992
6000000.00085
5999999.99835
5999999.99685
6000000.00129
5999999.99698
5999999.99491
6000000.00252
5999999.99785
6000000.00004
5999999.99812
6000000.00116
6000000.00107
5999999.99949
6000000.00088
5999999.9995
5999999.9996
6000000.00036
6000000.00025
6000000.00012
5999999.99989
6000000.00005
6000000.00004
5999999.99993
6000000.00004
6000000.00015
5999999.99997
6000000.00029
5999999.99982
5999999.99961
6000000.00017
5999999.99918
5999999.99995
5999999.99923
5999999.99959
5999999.99985
5999999.99999
5999999.99972
6000000.0004
6000000.00002
5999999.99995
5999999.99996
5999999.99998
5999999.99998
5999999.9999
5999999.99993
6000000.00012
5999999.99998
5999999.99998
6000000.00006
5999999.99998
5999999.99998
6000000.00002
5999999.99998
6000000.00006
5999999.99993
6000000.00001
5999999.99972
5999999.99961
6000000.00008
5999999.99998
5999999.99998
5999999.99998
5999999.99998
5999999.99993
5999999.99998
5999999.99998
5999999.99993
5999999.9999
6000000.00029
5999999.99986
5999999.99968
5999999.99995
5999999.99997
6000000.00057
5999999.9998
5999999.99998
5999999.99998
6000000.00002
5999999.99993
5999999.99998
5999999.9999
5999999.99993
5999999.99998
5999999.99998
5999999.99989
6000000.00001
5999999.99965
6000000.00059
6000000.00008
6000000.00003
6000000.00002
5999999.99993
5999999.99998
6000000.00009
5999999.99996
5999999.99813
6000000.00148
6000000.00008
6000000.0001
6000000.00006
6000000.0001
6000000.00008
5999999.99952
6000000.00118
6000000.0042
6000000.0016
5999999.99931
6000000.00314
6000000.00142
5999999.9979
6000000.00243
6000000.00002
6000000.00128
5999999.99836
5999999.99888
5999999.99987
5999999.99962
6000000.00007
5999999.99913
6000000.00133
6000000.00045
5999999.99992
6000000.00002
5999999.99948
6000000.00074
5999999.99913
6000000.00184
5999999.9978
6000000.0023
6000000.00315
5999999.99791
6000000.00278
5999999.99637
5999999.99624
6000000.00275
6000000.0005
6000000.00444
5999999.99734
5999999.99915
6000000.00169
5999999.99865
5999999.99953
5999999.99977
5999999.99991
6000000.00013
5999999.99987
6000000.0001
5999999.99987
5999999.99996
5999999.99989
5999999.99964
6000000.00011
6000000.00002
5999999.99998
6000000.00025
5999999.99981
5999999.99998
5999999.99915
5999999.99962
5999999.9999
5999999.99979
5999999.99972
5999999.99946
6000000.00131
5999999.99965
5999999.99982
6000000.00274
6000000.00174
5999999.99666
6000000.00146
5999999.9998
6000000.00253
6000000.0025
5999999.99585
5999999.99863
5999999.99909
6000000.00363
6000000.00283
5999999.99736
5999999.99862
5999999.99642
6000000.0011
5999999.99566
5999999.99661
5999999.99894
5999999.99597
6000000.0017
5999999.99786
5999999.99853
5999999.99889
6000000.00098
5999999.99775
5999999.99834
6000000.00199
6000000.00127
5999999.99783
5999999.99728
5999999.99755
5999999.99761
5999999.99845
5999999.9977
5999999.99995
5999999.99685
5999999.99438
6000000.00214
5999999.99866
5999999.99793
5999999.99807
5999999.99565
5999999.99632
6000000.00329
5999999.99688
5999999.99561
5999999.9993
5999999.99622
6000000.00094
6000000.00189
5999999.99521
5999999.99688
5999999.99697
6000000.00169
6000000.00174
5999999.99727
6000000.00475
6000000.00269
5999999.99916
6000000.00383
5999999.99533
5999999.99609
6000000.00188
5999999.99988
5999999.99986
5999999.99679
5999999.99762
6000000.00192
5999999.99753
5999999.99916
6000000.00187
5999999.99978
6000000.0019
6000000.00405
6000000.00163
6000000.00006
5999999.99657
5999999.99807
6000000.00389
6000000.00154
5999999.99533
5999999.99837
6000000.00029
6000000.00383
6000000.00073
5999999.99975
6000000.00063
6000000.00082
5999999.99997
5999999.99836
6000000.00172
6000000.00156
5999999.9991
6000000.00196
5999999.99763
5999999.99984
5999999.99848
6000000.00059
6000000.00107
5999999.99632
5999999.99987
6000000.00063
5999999.99679
5999999.99837
6000000.00118
5999999.99941
5999999.99888
6000000.00118
5999999.99956
5999999.99819
5999999.99772
5999999.99916
5999999.99765
6000000.00002
5999999.99845
6000000.00462
5999999.99911
5999999.99981
6000000.00497
5999999.99736
6000000.00119
6000000.00089
6000000.00728
5999999.99898
6000000.00125
6000000.00684
6000000.00482
5999999.99883
5999999.99662
6000000.00945
6000000.00726
6000000.00392
6000000.00058
5999999.99755
6000000.00772
6000000.0065
6000000.00198
6000000.00385
6000000.00233
5999999.99564
6000000.00607
6000000.00593
6000000.00078
5999999.99823
6000000.00831
6000000.00188
5999999.99449
6000000.00247
6000000.00133
6000000.00882
6000000.00474
5999999.99742
6000000.00057
6000000.00755
5999999.99791
5999999.99816
6000000.00708
6000000.00793
6000000.00141
6000000.00508
6000000.00642
6000000.00355
5999999.99834
6000000.00176
6000000.00557
6000000.00638
6000000.00722
6000000.0029
6000000.0021
6000000.0046
6000000.00677
6000000.00077
6000000.00128
6000000.00453
5999999.99686
6000000.00508
6000000.00327
6000000.00838
6000000.00284
6000000.00548
6000000.00497
5999999.99524
6000000.00545
6000000.00242
5999999.99865
6000000.00638
5999999.99899
5999999.99928
5999999.99896
6000000.00031
5999999.99889
5999999.9995
5999999.99845
5999999.9994
5999999.99994
5999999.9991
5999999.99891
5999999.99839
5999999.9998
5999999.99921
6000000.0011
5999999.99799
5999999.99837
5999999.9979
6000000.00024
5999999.99889
5999999.99809
5999999.99892
5999999.99965
5999999.99852
5999999.99837
5999999.99837
5999999.99894
5999999.99882
5999999.99947
5999999.99664
5999999.99812
6000000.00014
5999999.99867
5999999.99732
5999999.99982
5999999.99776
6000000.00058
5999999.99915
5999999.99865
5999999.99778
5999999.99875
6000000.0004
5999999.99834
5999999.99952
5999999.99954
5999999.99812
5999999.9981
5999999.99975
5999999.99799
5999999.99677
5999999.99982
5999999.99942
6000000.00113
6000000.00025
5999999.99888
5999999.99971
5999999.99772
5999999.99766
5999999.99861
5999999.99917
5999999.99881
6000000.00075
6000000.00269
5999999.99837
5999999.99941
5999999.99943
5999999.99983
5999999.99967
6000000.00064
5999999.99973
5999999.99965
6000000.0004
5999999.99978
5999999.99969
5999999.99974
5999999.99974
6000000.00046
5999999.99998
5999999.9998
5999999.99974
6000000.00037
6000000.00036
5999999.99984
6000000.00029
5999999.99989
6000000.00044
5999999.99968
5999999.99962
6000000.0004
5999999.99996
6000000.00047
5999999.99978
5999999.9999
5999999.99969
6000000.0003
6000000.00057
6000000.0003
6000000.00056
5999999.9997
6000000.00046
6000000.00043
5999999.99966
6000000.0001
5999999.99977
6000000.00038
5999999.99995
5999999.99956
6000000.00059
6000000.00019
6000000.00042
6000000.00047
5999999.99963
5999999.99964
5999999.99979
6000000.00019
6000000.00016
6000000.00043
6000000.00045
5999999.99985
5999999.99994
6000000.00026
6000000.00002
6000000.00034
6000000.0002
6000000.00016
6000000.00057
5999999.99967
6000000.00042
6000000.00052
6000000.00078
6000000.00076
6000000.00086
6000000.00055
6000000.0008
6000000.00067
6000000.00109
6000000.00067
6000000.00066
6000000.00065
6000000.00071
6000000.00065
6000000.00069
6000000.00077
6000000.00078
6000000.0005
6000000.0008
6000000.00088
6000000.00062
6000000.00084
6000000.00088
6000000.0005
6000000.00066
6000000.00061
6000000.00073
6000000.00059
6000000.00051
6000000.00074
6000000.0008
6000000.0007
6000000.00071
6000000.00081
6000000.00091
6000000.00055
6000000.00076
6000000.00054
6000000.00056
6000000.00051
6000000.00068
6000000.00075
6000000.00083
6000000.0009
6000000.00083
6000000.00081
6000000.00075
6000000.00058
6000000.00083
6000000.00081
6000000.00092
6000000.00064
6000000.00058
6000000.00062
6000000.00076
6000000.00076
6000000.00067
6000000.00083
6000000.0009
6000000.00084
6000000.00077
6000000.00064
6000000.00093
6000000.00105
6000000.00074
5999999.99921
5999999.99902
5999999.99897
5999999.99911
5999999.99904
5999999.9994
5999999.99907
5999999.99907
5999999.99898
5999999.99888
5999999.99912
5999999.9992
5999999.99941
5999999.99901
5999999.99892
5999999.99905
5999999.99902
5999999.99925
5999999.99908
5999999.99911
5999999.99908
5999999.99904
5999999.99929
5999999.99934
5999999.99903
5999999.99908
5999999.99942
5999999.99907
5999999.99916
5999999.99927
5999999.99901
5999999.99949
5999999.99927
5999999.99919
5999999.99907
5999999.99909
5999999.99929
5999999.99892
5999999.99889
5999999.99899
5999999.99929
5999999.99917
5999999.99905
5999999.99913
5999999.99916
5999999.99899
5999999.99945
5999999.99924
5999999.99898
5999999.99915
5999999.99909
5999999.99898
5999999.99891
5999999.99893
5999999.99906
5999999.99917
5999999.99926
5999999.99921
5999999.99921
5999999.99912
5999999.9991
5999999.99922
5999999.9991
5999999.99893
5999999.99955
5999999.99943
5999999.9994
5999999.99983
5999999.99961
5999999.99968
5999999.99969
5999999.9996
5999999.99974
5999999.99958
5999999.99951
5999999.99941
5999999.99951