/*--------------------------------*- C++ -*----------------------------------*\
  =========                 |
  \\      /  F ield         | OpenFOAM: The Open Source CFD Toolbox
   \\    /   O peration     | Website:  https://openfoam.org
    \\  /    A nd           | Version:  6
     \\/     M anipulation  |
\*---------------------------------------------------------------------------*/
FoamFile
{
    version     2.0;
    format      ascii;
    class       volVectorField;
    location    "3.6e-05";
    object      U;
}
// * * * * * * * * * * * * * * * * * * * * * * * * * * * * * * * * * * * * * //

dimensions      [0 1 -1 0 0 0 0];

internalField   nonuniform List<vector> 
8192
(
(-88.3220000002 0 -2.52319189379e-10)
(-88.3219999996 0 -2.73611731422e-11)
(-88.322 0 -5.99625125871e-11)
(-88.322 0 -8.51838665196e-11)
(-88.3219999998 0 -4.90511961794e-11)
(-88.3219999999 0 1.94707172639e-11)
(-88.322 0 -6.37884406273e-13)
(-88.322 0 3.44234798185e-13)
(-88.322 0 -1.01804229229e-10)
(-88.322 0 -3.70435282767e-10)
(-88.322 0 -3.34396376212e-10)
(-88.322 0 2.16590099648e-10)
(-88.322 0 4.29522532219e-10)
(-88.322 0 -3.26990602836e-10)
(-88.322 0 -4.7468323698e-10)
(-88.322 0 1.88928100743e-10)
(-88.322 0 3.84870481697e-11)
(-88.322 0 3.00138355679e-10)
(-88.322 0 -3.30110301319e-10)
(-88.322 0 -2.6280773582e-10)
(-88.322 0 2.39681945678e-10)
(-88.322 0 2.5864503735e-10)
(-88.322 0 -2.02647859628e-10)
(-88.322 0 -2.81601041626e-10)
(-88.322 0 7.07225508626e-11)
(-88.322 0 5.07234027556e-11)
(-88.322 0 8.00765459853e-11)
(-88.322 0 6.38730118023e-11)
(-88.3220000001 0 8.73361488004e-11)
(-88.322 0 -3.62439320328e-11)
(-88.3219999999 0 7.9663150703e-11)
(-88.322 0 3.34157349693e-11)
(-88.3219999995 0 2.71015910996e-11)
(-88.3220000007 0 2.75645185925e-10)
(-88.3220000012 0 -2.9583631785e-10)
(-88.3219999994 0 -3.3716317243e-10)
(-88.322 0 -1.05691488767e-11)
(-88.3219999997 0 -3.47620908874e-10)
(-88.3219999992 0 1.46855565206e-10)
(-88.3220000003 0 5.00346045795e-11)
(-88.322 0 2.28990292826e-11)
(-88.322 0 -1.02166761553e-12)
(-88.322 0 -1.38337673983e-11)
(-88.322 0 -8.02070095506e-12)
(-88.322 0 -3.51286190966e-11)
(-88.322 0 -1.63884465732e-11)
(-88.322 0 -9.22296933971e-12)
(-88.322 0 -3.35478355054e-12)
(-88.322 0 -6.09529066e-13)
(-88.322 0 -1.98641794613e-11)
(-88.322 0 2.75804011323e-12)
(-88.3220000001 0 5.39626736836e-12)
(-88.3219999998 0 -6.44024981091e-11)
(-88.3219999998 0 1.26101966583e-10)
(-88.3220000006 0 8.70312890903e-11)
(-88.3220000003 0 -1.64858826804e-10)
(-88.3219999998 0 -4.41194170201e-11)
(-88.3219999999 0 -8.02497469353e-11)
(-88.322 0 -2.75168532267e-11)
(-88.3219999996 0 -1.02881003958e-10)
(-88.3219999991 0 1.81812777932e-10)
(-88.3219999998 0 2.91830980848e-10)
(-88.3220000004 0 2.65874592903e-10)
(-88.3220000011 0 1.00429205905e-10)
(-88.322 0 -2.29739182045e-11)
(-88.322 0 -2.54171587599e-11)
(-88.322 0 3.20953530823e-11)
(-88.322 0 1.25529290295e-11)
(-88.322 0 4.88227721908e-11)
(-88.322 0 -3.04306884086e-11)
(-88.322 0 -1.4476901647e-13)
(-88.3220000002 0 -2.44226397166e-14)
(-88.3220000007 0 -3.74626147257e-12)
(-88.3220000004 0 -1.68752808395e-11)
(-88.3219999989 0 5.6103984205e-13)
(-88.3219999985 0 -4.89245314174e-11)
(-88.3220000011 0 -9.33078367379e-12)
(-88.3220000017 0 -6.14957273917e-11)
(-88.3219999991 0 -1.23741453007e-10)
(-88.321999999 0 9.86126130906e-11)
(-88.3219999998 0 1.18476960323e-11)
(-88.3220000007 0 8.04934398138e-11)
(-88.3220000011 0 -1.23182105934e-10)
(-88.3219999989 0 -8.88891216732e-11)
(-88.321999999 0 9.10831392269e-12)
(-88.3220000009 0 8.76504000384e-11)
(-88.322000001 0 8.33060850438e-11)
(-88.3219999995 0 -4.97869098406e-11)
(-88.3219999994 0 2.52658570663e-10)
(-88.322 0 -1.97963594074e-10)
(-88.322 0 2.11805347879e-10)
(-88.322 0 1.84013626124e-10)
(-88.3220000001 0 5.60745114866e-11)
(-88.322 0 5.70119587132e-11)
(-88.322 0 1.3691855012e-11)
(-88.322 0 -2.92293185371e-11)
(-88.322 0 -5.31550479182e-11)
(-88.322 0 -2.47698207419e-10)
(-88.322 0 2.19067741835e-10)
(-88.322 0 3.05015125018e-10)
(-88.322 0 -1.11410180183e-11)
(-88.322 0 1.99092690611e-10)
(-88.322 0 -1.45538855659e-10)
(-88.322 0 -5.9809483441e-11)
(-88.322 0 6.54450536857e-12)
(-88.322 0 -4.99415492344e-12)
(-88.322 0 -1.08275346896e-11)
(-88.322 0 -2.48763395572e-11)
(-88.322 0 -2.7323871795e-10)
(-88.322 0 -1.72297265825e-10)
(-88.322 0 -1.9924568146e-10)
(-88.322 0 -1.61286373664e-10)
(-88.322 0 -2.05214105431e-10)
(-88.322 0 -1.05022406505e-10)
(-88.322 0 1.89330228243e-10)
(-88.322 0 -4.51422986496e-12)
(-88.322 0 7.59887588978e-12)
(-88.322 0 -6.02159235033e-12)
(-88.322 0 -1.56407843242e-10)
(-88.322 0 3.26008922773e-10)
(-88.322 0 -6.77146060954e-11)
(-88.322 0 -2.31020635702e-10)
(-88.322 0 -3.34802473581e-10)
(-88.322 0 3.46858834499e-10)
(-88.322 0 1.10211999473e-10)
(-88.322 0 -6.32236338893e-10)
(-88.322 0 -6.32849542181e-10)
(-88.322 0 -2.63796782929e-10)
(-88.3219999998 0 2.19422723857e-11)
(-88.3219999995 0 1.53318838267e-11)
(-88.322 0 -4.47557300399e-12)
(-88.322 0 4.81576451177e-11)
(-88.322 0 -4.27390135318e-12)
(-88.322 0 2.03761180854e-11)
(-88.322 0 1.39295425593e-12)
(-88.322 0 3.94633736627e-12)
(-88.322 0 8.29023803233e-11)
(-88.322 0 3.52985721695e-10)
(-88.322 0 3.20856400976e-10)
(-88.322 0 -2.05122260335e-10)
(-88.322 0 -4.19797391787e-10)
(-88.3220000002 0 2.92395653509e-10)
(-88.3219999996 0 4.34891076189e-10)
(-88.3219999997 0 -1.90474571275e-10)
(-88.322 0 -4.03234005577e-11)
(-88.3220000002 0 -2.77691065391e-10)
(-88.3220000004 0 3.27254367025e-10)
(-88.3219999998 0 2.50065687036e-10)
(-88.3219999996 0 -2.42130594466e-10)
(-88.3219999999 0 -2.27150247021e-10)
(-88.3220000003 0 2.25913779997e-10)
(-88.3219999997 0 2.80722765947e-10)
(-88.3220000003 0 -3.66446129164e-11)
(-88.322 0 -4.85318046666e-11)
(-88.3219999992 0 -3.38880824634e-11)
(-88.3220000003 0 -1.4429842667e-11)
(-88.3220000004 0 7.72961135201e-11)
(-88.3220000001 0 -5.18591931163e-11)
(-88.3220000001 0 9.12225617655e-11)
(-88.3220000002 0 -1.38774805482e-11)
(-88.322 0 -2.02206360803e-10)
(-88.322 0 2.12960530938e-10)
(-88.322 0 2.98107803442e-10)
(-88.322 0 -9.24919025721e-11)
(-88.3220000002 0 -3.09580138144e-10)
(-88.322 0 4.10701554203e-10)
(-88.3219999998 0 2.97239787693e-10)
(-88.322 0 -3.06254710069e-10)
(-88.322 0 -2.52613085046e-10)
(-88.322 0 1.69739292854e-11)
(-88.3220000001 0 -1.37548503823e-10)
(-88.3220000006 0 -4.47809614262e-11)
(-88.3220000003 0 -1.40532194945e-10)
(-88.3219999998 0 2.6905217656e-11)
(-88.322 0 -2.61238129115e-10)
(-88.3219999999 0 -4.36505320998e-10)
(-88.3219999998 0 2.03288978455e-10)
(-88.3219999993 0 -3.89267564603e-12)
(-88.3219999998 0 -1.30998464445e-10)
(-88.3220000005 0 8.36383941475e-11)
(-88.3219999998 0 -2.70507341631e-10)
(-88.3220000001 0 2.20637281638e-10)
(-88.3219999999 0 -2.57248255121e-11)
(-88.3220000001 0 -2.29671132729e-10)
(-88.322000001 0 -1.89120913537e-10)
(-88.3220000004 0 -1.71330191282e-10)
(-88.3219999989 0 -1.10485741684e-10)
(-88.3219999987 0 -8.57629628159e-11)
(-88.3220000011 0 -1.0312801999e-10)
(-88.3220000013 0 4.71869054802e-11)
(-88.3219999997 0 7.8025632437e-12)
(-88.3219999999 0 1.68049794183e-11)
(-88.322 0 3.17236305423e-10)
(-88.322 0 8.55976776078e-11)
(-88.322 0 2.57091455212e-11)
(-88.322 0 5.24884096793e-11)
(-88.322 0 -2.04606909544e-11)
(-88.322 0 4.17007946997e-12)
(-88.322 0 1.83743532729e-12)
(-88.322 0 1.51579281406e-11)
(-88.322 0 9.24296640926e-12)
(-88.322 0 3.85984137432e-11)
(-88.322 0 1.11709933922e-11)
(-88.322 0 2.85464732813e-11)
(-88.322 0 1.36499678696e-11)
(-88.322 0 9.24027864201e-11)
(-88.322 0 1.4490761022e-10)
(-88.322 0 -1.00341903904e-10)
(-88.322 0 -1.4115411143e-11)
(-88.322 0 -1.04257625674e-10)
(-88.322 0 1.39546475666e-10)
(-88.322 0 2.12245024837e-10)
(-88.322 0 -2.491067726e-10)
(-88.322 0 -4.43344337697e-10)
(-88.322 0 1.71403102487e-10)
(-88.322 0 2.34567903468e-10)
(-88.322 0 -9.67157106639e-11)
(-88.322 0 3.42013213897e-10)
(-88.322 0 -1.49804920592e-10)
(-88.3219999998 0 -6.5175644173e-11)
(-88.3220000002 0 -1.00198731398e-10)
(-88.322 0 -7.50203773752e-11)
(-88.3219999999 0 2.44907927253e-12)
(-88.3220000006 0 -3.906445866e-11)
(-88.3219999995 0 -1.36486870485e-11)
(-88.3219999991 0 -1.69339770186e-11)
(-88.3220000006 0 3.10988543739e-11)
(-88.3220000011 0 3.77065452882e-11)
(-88.321999999 0 -1.51631764775e-11)
(-88.3219999988 0 1.58373485078e-10)
(-88.3220000013 0 7.16165245992e-12)
(-88.322000001 0 8.13887213768e-12)
(-88.3219999993 0 -1.70367413681e-11)
(-88.3219999998 0 -1.05510293788e-11)
(-88.3220000001 0 5.83734549403e-12)
(-88.322 0 2.79247530788e-11)
(-88.3219999999 0 2.98768864293e-10)
(-88.3220000002 0 1.73309779502e-10)
(-88.3220000009 0 1.95292493037e-10)
(-88.3219999991 0 1.28268837917e-10)
(-88.3219999992 0 2.39337997305e-10)
(-88.3220000007 0 1.49543494194e-10)
(-88.3219999999 0 -1.96009969299e-10)
(-88.3220000003 0 7.01958516498e-11)
(-88.3219999997 0 -7.79844671915e-11)
(-88.3219999995 0 2.18767158366e-10)
(-88.3220000009 0 3.28034566732e-10)
(-88.3220000003 0 -4.07823425157e-10)
(-88.3219999999 0 -4.04356228662e-11)
(-88.3219999999 0 3.17606685221e-10)
(-88.3219999998 0 1.51301229738e-10)
(-88.3219999999 0 -2.02785859261e-10)
(-88.3219999997 0 -4.88531377955e-10)
(-88.3219999998 0 6.3027211187e-10)
(-88.322 0 4.77345865328e-10)
(-88.322 0 3.05948263868e-10)
(-88.3220000002 0 -1.80054965763e-10)
(-88.3220000001 0 -2.97543414475e-11)
(-88.322 0 3.9751571971e-11)
(-88.3220000001 0 7.28784514725e-12)
(-88.322 0 -1.86852331812e-11)
(-88.322 0 4.87990938426e-12)
(-88.322 0 1.29312727008e-11)
(-88.322 0 1.85894196294e-11)
(-88.322 0 1.32066583752e-11)
(-88.322 0 4.25945005478e-12)
(-88.322 0 6.93629879114e-12)
(-88.322 0 -5.44343827431e-11)
(-88.322 0 -6.56262750113e-11)
(-88.322 0 -9.91009563584e-12)
(-88.322 0 8.40502671609e-12)
(-88.322 0 1.08426242344e-11)
(-88.322 0 2.58804182765e-11)
(-88.3219999999 0 3.17319230922e-11)
(-88.3219999998 0 3.09763442826e-12)
(-88.3220000005 0 1.03241786586e-11)
(-88.3220000009 0 9.58999987504e-12)
(-88.3219999991 0 1.89467030518e-12)
(-88.321999999 0 1.20420158525e-11)
(-88.3220000002 0 -4.92259435808e-11)
(-88.3220000001 0 2.34519115586e-11)
(-88.3220000001 0 6.83211257209e-12)
(-88.322 0 1.10509466704e-10)
(-88.3220000002 0 1.68300022027e-10)
(-88.3220000004 0 1.78404338872e-10)
(-88.3219999998 0 1.46539309462e-11)
(-88.322 0 1.48714492773e-10)
(-88.3220000001 0 1.89362976879e-10)
(-88.322 0 -1.75478810316e-11)
(-88.322 0 -2.84913073113e-10)
(-88.322 0 -4.43118650368e-10)
(-88.322 0 -6.25052639033e-11)
(-88.322 0 3.97116444606e-10)
(-88.322 0 -5.05836432064e-10)
(-88.322 0 -2.80225670714e-10)
(-88.322 0 2.47692472235e-10)
(-88.322 0 2.0509569901e-10)
(-88.322 0 -1.68188547021e-11)
(-88.322 0 1.22063934862e-10)
(-88.322 0 4.25825521765e-11)
(-88.322 0 1.20232128297e-10)
(-88.322 0 -2.53382838139e-11)
(-88.322 0 2.55921276704e-10)
(-88.3219999999 0 4.10839878182e-10)
(-88.3219999998 0 -1.90293646725e-10)
(-88.3220000001 0 -8.10775078077e-12)
(-88.3219999999 0 9.59946995347e-11)
(-88.3220000002 0 -3.09821110829e-11)
(-88.3219999996 0 2.14554643086e-10)
(-88.3219999993 0 -1.92501643597e-10)
(-88.3220000012 0 -1.3412894104e-11)
(-88.3220000008 0 -1.39423492653e-10)
(-88.3219999995 0 -2.25261790656e-11)
(-88.322 0 1.1016741378e-10)
(-88.3219999999 0 -2.62182081976e-10)
(-88.322 0 4.19883813247e-10)
(-88.3219999995 0 2.95290671479e-10)
(-88.3219999994 0 2.21715858569e-10)
(-88.3220000003 0 9.63792748358e-11)
(-88.3220000002 0 5.38125398074e-11)
(-88.3220000001 0 -3.09353901258e-11)
(-88.3219999996 0 -9.27674051125e-11)
(-88.322 0 1.64032182463e-10)
(-88.3220000001 0 3.4333136912e-10)
(-88.322 0 -1.64755343663e-10)
(-88.322 0 3.38663151187e-10)
(-88.322 0 3.08778207195e-10)
(-88.322 0 -1.60793713412e-10)
(-88.322 0 -3.29985243229e-11)
(-88.322 0 4.51689027875e-11)
(-88.322 0 -5.37346391542e-12)
(-88.322 0 3.7869766052e-11)
(-88.322 0 6.56964805145e-11)
(-88.322 0 -1.48897214349e-10)
(-88.322 0 2.94019961685e-10)
(-88.322 0 2.83321254813e-10)
(-88.322 0 2.30374673334e-10)
(-88.322 0 8.51959946125e-11)
(-88.322 0 -1.88194275851e-10)
(-88.322 0 -1.35548543471e-10)
(-88.322 0 5.15482523851e-10)
(-88.322 0 6.5185686923e-10)
(-88.3220000001 0 -3.19195955993e-10)
(-88.322 0 -3.73049825839e-10)
(-88.322 0 -2.25188245721e-10)
(-88.3219999999 0 1.1484369509e-10)
(-88.3219999996 0 9.16637621205e-11)
(-88.3219999997 0 -1.34228444057e-10)
(-88.3220000005 0 2.44650338426e-10)
(-88.322 0 2.05467363818e-10)
(-88.3219999996 0 5.28717619334e-11)
(-88.322000001 0 -2.52471591383e-10)
(-88.3220000004 0 5.29729778556e-11)
(-88.3219999998 0 2.85260792249e-11)
(-88.3220000002 0 3.03459448514e-11)
(-88.3219999995 0 -9.19490616442e-12)
(-88.322 0 3.29536368674e-12)
(-88.3220000001 0 5.69987523855e-13)
(-88.3219999999 0 -5.89255093684e-12)
(-88.322 0 1.8559582387e-11)
(-88.3219999999 0 1.63110002715e-11)
(-88.322 0 -8.12134581467e-12)
(-88.322 0 4.24389059956e-12)
(-88.322 0 3.31149730966e-12)
(-88.322 0 1.83880422137e-12)
(-88.322 0 -4.57770108308e-13)
(-88.322 0 -5.50804291379e-12)
(-88.322 0 6.60175953242e-11)
(-88.322 0 -4.59026385719e-11)
(-88.322 0 -4.28184147512e-11)
(-88.3219999999 0 1.15501872119e-11)
(-88.3220000001 0 -6.43810541407e-11)
(-88.322 0 1.52369908063e-10)
(-88.322 0 -3.08469878485e-10)
(-88.3220000008 0 -2.53881918493e-10)
(-88.3220000002 0 2.51533775869e-10)
(-88.3219999994 0 1.63235578044e-10)
(-88.3220000004 0 1.106129904e-11)
(-88.3219999992 0 2.03521681979e-10)
(-88.3219999988 0 -4.05328821876e-11)
(-88.3220000001 0 2.01035472443e-10)
(-88.3220000002 0 -2.4884129767e-10)
(-88.3220000004 0 -7.11744973373e-11)
(-88.3220000005 0 -1.33141839659e-10)
(-88.3220000002 0 2.14151796249e-10)
(-88.3219999997 0 1.49817617866e-11)
(-88.3219999992 0 -3.98560357703e-11)
(-88.3220000008 0 6.72918506187e-12)
(-88.322 0 2.43147673256e-12)
(-88.321999999 0 5.10892673598e-12)
(-88.322000001 0 -2.17066305226e-11)
(-88.3220000007 0 8.44611019301e-12)
(-88.3219999996 0 -3.81140974592e-11)
(-88.322 0 -1.21358086671e-10)
(-88.322 0 2.75946223779e-10)
(-88.3219999999 0 -3.34572035865e-10)
(-88.3220000004 0 -3.82548153284e-10)
(-88.3219999995 0 -7.29322800232e-11)
(-88.3219999991 0 -9.23330694582e-11)
(-88.3220000001 0 -4.72495909111e-11)
(-88.3220000004 0 -2.84085600265e-11)
(-88.3220000008 0 -3.31889379773e-11)
(-88.3220000002 0 -9.65894121197e-13)
(-88.3219999991 0 -2.97723451145e-12)
(-88.3219999994 0 -7.76461783505e-13)
(-88.3220000007 0 3.40074227763e-12)
(-88.3220000011 0 -1.03165698545e-11)
(-88.322 0 4.10378284241e-11)
(-88.3219999991 0 -4.7662057758e-11)
(-88.3219999995 0 1.18476973497e-11)
(-88.3220000005 0 -1.25650175083e-10)
(-88.3219999998 0 -1.6412085665e-10)
(-88.3219999996 0 -3.00013349153e-10)
(-88.3220000002 0 6.73053788451e-11)
(-88.322000001 0 -2.53452143152e-10)
(-88.3220000002 0 -2.47318244655e-10)
(-88.3219999993 0 4.37717011116e-10)
(-88.322 0 1.3918926752e-10)
(-88.322 0 -1.63686340428e-10)
(-88.3220000001 0 -1.16557735269e-10)
(-88.322 0 -1.28675252291e-10)
(-88.322 0 4.00957477434e-10)
(-88.322 0 -6.48951342733e-12)
(-88.322 0 -1.40575380411e-10)
(-88.322 0 1.66184576622e-11)
(-88.322 0 1.28135356725e-11)
(-88.322 0 -1.91588069213e-11)
(-88.322 0 1.2810211108e-11)
(-88.322 0 2.38350624494e-11)
(-88.322 0 2.29604231654e-12)
(-88.3219999999 0 7.55654650095e-13)
(-88.322 0 -2.47903582743e-12)
(-88.322 0 4.92151621756e-12)
(-88.322 0 5.51573790882e-13)
(-88.322 0 3.20302292736e-11)
(-88.322 0 -2.51188378997e-11)
(-88.322 0 4.35094625506e-11)
(-88.322 0 -6.17792141751e-11)
(-88.322 0 2.94713512034e-11)
(-88.322 0 2.80853674864e-10)
(-88.322 0 1.10000648552e-10)
(-88.322 0 2.23095096126e-11)
(-88.322 0 3.52531301463e-10)
(-88.322 0 -2.94884795988e-10)
(-88.322 0 -1.67609374226e-10)
(-88.3219999999 0 9.25916875916e-11)
(-88.322 0 1.17641791728e-10)
(-88.322 0 -6.58429466488e-11)
(-88.322 0 4.40359453415e-11)
(-88.322 0 9.74865889441e-11)
(-88.322 0 -1.59621614049e-10)
(-88.322 0 -3.3518766304e-10)
(-88.322 0 2.01543919201e-10)
(-88.322 0 -3.41444422415e-10)
(-88.322 0 -3.10161270279e-10)
(-88.3220000001 0 1.59437951429e-10)
(-88.3220000003 0 3.22549717954e-11)
(-88.3219999993 0 -5.90141175955e-11)
(-88.3220000005 0 1.73334349494e-11)
(-88.3220000014 0 -3.60842566745e-11)
(-88.3219999995 0 -5.14861663771e-11)
(-88.3219999993 0 1.31138159671e-10)
(-88.3219999999 0 -2.97065169107e-10)
(-88.3219999999 0 -2.64493642063e-10)
(-88.3219999999 0 -2.1938244774e-10)
(-88.322 0 -6.61214409193e-11)
(-88.322 0 1.65195040097e-10)
(-88.322 0 1.68547592844e-11)
(-88.322 0 -2.65023077935e-10)
(-88.322 0 -3.15038845731e-10)
(-88.322 0 7.02904355681e-11)
(-88.322 0 1.97049606331e-10)
(-88.322 0 7.40169580736e-11)
(-88.322 0 -2.48022810519e-10)
(-88.322 0 -1.68512402913e-10)
(-88.322 0 -7.09917704913e-13)
(-88.322 0 -2.48044993038e-10)
(-88.322 0 -1.77667950267e-10)
(-88.3220000001 0 -1.16207183967e-10)
(-88.3219999996 0 2.87159258723e-10)
(-88.3219999997 0 -2.47091870337e-11)
(-88.3220000011 0 -1.36579895626e-11)
(-88.3220000007 0 -5.07345355115e-11)
(-88.3219999993 0 -1.62250820322e-11)
(-88.3219999988 0 5.21116215865e-11)
(-88.3219999999 0 -7.63068686895e-12)
(-88.322000001 0 1.14633786458e-11)
(-88.3220000001 0 -1.95781013956e-11)
(-88.3219999996 0 -6.68766592509e-12)
(-88.3220000001 0 1.99061255071e-11)
(-88.322 0 1.03773283138e-12)
(-88.322 0 -6.08648948412e-12)
(-88.322 0 -2.56254548871e-11)
(-88.322 0 -8.69142348153e-12)
(-88.322 0 8.99801670382e-12)
(-88.322 0 -3.85893624628e-11)
(-88.322 0 1.10682079654e-11)
(-88.322 0 1.2099162287e-11)
(-88.322 0 -2.74040764164e-11)
(-88.322 0 1.59131159854e-12)
(-88.322 0 -8.36930289038e-12)
(-88.322 0 2.70375877648e-10)
(-88.3220000002 0 2.61717448296e-10)
(-88.3220000001 0 -2.82552355162e-10)
(-88.322 0 -1.93088394615e-10)
(-88.322 0 -3.66211914474e-11)
(-88.3219999998 0 -2.70900558617e-10)
(-88.3219999998 0 6.60930731585e-11)
(-88.3219999994 0 -2.37094093875e-10)
(-88.3219999997 0 2.48992089142e-10)
(-88.3220000008 0 -2.02146782577e-11)
(-88.3220000003 0 4.76942102116e-11)
(-88.322 0 -1.11007406824e-10)
(-88.3220000001 0 -3.7773642175e-11)
(-88.322 0 -2.69148654046e-11)
(-88.322 0 -1.92004674829e-11)
(-88.322 0 -1.10420376992e-11)
(-88.322 0 4.72481043042e-12)
(-88.322 0 2.80115641855e-12)
(-88.322 0 -2.87344785742e-11)
(-88.322 0 3.49314099012e-11)
(-88.322 0 1.04923065802e-10)
(-88.322 0 -2.88596406672e-10)
(-88.322 0 3.83271390042e-10)
(-88.322 0 4.45350035116e-10)
(-88.322 0 8.55036154462e-11)
(-88.322 0 8.66046611339e-11)
(-88.322 0 3.38855278781e-11)
(-88.322 0 5.1255326217e-12)
(-88.322 0 6.67345532171e-12)
(-88.322 0 6.25125669928e-12)
(-88.322 0 -3.51456024914e-13)
(-88.322 0 -9.25563159635e-12)
(-88.322 0 7.03882959684e-12)
(-88.322 0 1.45564958553e-11)
(-88.322 0 6.50716113288e-12)
(-88.322 0 2.30307111904e-13)
(-88.322 0 -1.82544935556e-11)
(-88.322 0 6.30183756099e-12)
(-88.322 0 -4.40574246931e-12)
(-88.322 0 -1.05291383651e-12)
(-88.322 0 -2.02971610885e-11)
(-88.322 0 2.43760945892e-11)
(-88.322 0 2.88311520602e-11)
(-88.322 0 -1.37845022953e-10)
(-88.322 0 1.96356448452e-10)
(-88.3220000001 0 8.29163799661e-11)
(-88.322 0 9.55542974817e-12)
(-88.322 0 -3.18817750265e-11)
(-88.322 0 -5.52538058856e-10)
(-88.322 0 5.68709788083e-11)
(-88.322 0 1.94683112359e-10)
(-88.322 0 1.04019393317e-11)
(-88.322 0 -1.05726684061e-11)
(-88.322 0 3.04690102914e-11)
(-88.322 0 -2.46547990883e-11)
(-88.322 0 -1.74747607476e-11)
(-88.322 0 -1.09200440013e-11)
(-88.322 0 -1.99828414434e-12)
(-88.322 0 1.71711408332e-11)
(-88.322 0 1.53209789689e-11)
(-88.322 0 3.42330270201e-11)
(-88.322 0 -9.29613384845e-12)
(-88.3219999999 0 1.82219428956e-12)
(-88.3219999995 0 -4.00406439514e-11)
(-88.3219999995 0 7.38607106903e-11)
(-88.3220000012 0 6.72229258424e-11)
(-88.322000001 0 -1.8120621954e-10)
(-88.3219999995 0 -8.23821185258e-11)
(-88.3220000002 0 -1.02438117609e-10)
(-88.3219999998 0 -3.0856272381e-11)
(-88.3219999998 0 -6.44473766257e-12)
(-88.3219999996 0 7.60935455371e-11)
(-88.3219999995 0 -6.34860609037e-10)
(-88.3220000004 0 -4.16086364188e-10)
(-88.322 0 -1.44172825173e-10)
(-88.3219999998 0 2.0254140536e-11)
(-88.3219999999 0 8.45974835065e-11)
(-88.322 0 -4.79346231229e-11)
(-88.322 0 -1.02250536214e-11)
(-88.322 0 1.50150362253e-11)
(-88.322 0 1.04461377295e-11)
(-88.322 0 -2.73097605747e-11)
(-88.322 0 -4.36903034502e-11)
(-88.322 0 -2.00903161887e-11)
(-88.322 0 -2.20298322653e-11)
(-88.322 0 -7.89032216933e-12)
(-88.322 0 -9.58130399146e-12)
(-88.322 0 -6.8078363442e-12)
(-88.322 0 -3.84571396033e-12)
(-88.322 0 -9.90767626519e-12)
(-88.322 0 -9.12467544369e-12)
(-88.322 0 -1.05537052524e-11)
(-88.322 0 -8.08406575177e-12)
(-88.322 0 2.49358322506e-11)
(-88.322 0 -7.09643295666e-11)
(-88.322 0 -4.20803715802e-11)
(-88.322 0 2.03215797009e-10)
(-88.322 0 1.79154217595e-10)
(-88.322 0 -2.80477576205e-10)
(-88.322 0 -2.5815486657e-10)
(-88.322 0 -1.10741473171e-10)
(-88.322 0 1.57877207532e-11)
(-88.322 0 -7.61259262615e-11)
(-88.322 0 4.00054384951e-11)
(-88.322 0 -1.03051158677e-10)
(-88.322 0 -3.00103736246e-10)
(-88.322 0 -2.10869242448e-10)
(-88.3219999994 0 2.44135488219e-11)
(-88.3220000006 0 -2.67911835671e-10)
(-88.322000001 0 -3.150506571e-10)
(-88.3219999996 0 -3.26971787223e-10)
(-88.322 0 3.16768997514e-10)
(-88.3219999997 0 2.85275104287e-10)
(-88.3219999994 0 -2.91250755412e-10)
(-88.3220000001 0 -2.56170616412e-10)
(-88.322 0 2.40630468921e-10)
(-88.322 0 5.35094638896e-11)
(-88.322 0 -2.44907168095e-10)
(-88.322 0 -3.15224935438e-10)
(-88.322 0 2.39399626519e-10)
(-88.322 0 -1.8129719962e-10)
(-88.322 0 2.76985798426e-11)
(-88.322 0 -3.63270209577e-10)
(-88.322 0 3.59286495983e-10)
(-88.322 0 -2.26967948496e-11)
(-88.322 0 1.8286109664e-11)
(-88.3220000002 0 6.46926680841e-11)
(-88.3219999998 0 -1.90618213598e-10)
(-88.3219999998 0 -4.4774190077e-10)
(-88.3220000006 0 -4.71795190792e-10)
(-88.3220000003 0 -9.37196632684e-11)
(-88.3219999998 0 5.11382414271e-10)
(-88.3219999999 0 3.54108900032e-10)
(-88.3219999997 0 -8.41079327175e-11)
(-88.3219999996 0 -3.15729147262e-10)
(-88.3220000006 0 3.22150080679e-10)
(-88.3220000007 0 -2.06960695045e-11)
(-88.3219999997 0 -1.04820618458e-10)
(-88.3219999998 0 2.18185807443e-11)
(-88.322 0 7.80199603255e-11)
(-88.3220000002 0 4.85097668647e-11)
(-88.3220000002 0 4.57554439744e-11)
(-88.3219999999 0 -7.16792240501e-11)
(-88.322 0 3.75280290057e-11)
(-88.322 0 -8.29866172731e-11)
(-88.322 0 4.69365602734e-11)
(-88.322 0 6.0480934451e-11)
(-88.322 0 -8.22275033144e-11)
(-88.322 0 -2.36334168911e-10)
(-88.322 0 -1.24634168599e-10)
(-88.322 0 -2.6015378068e-10)
(-88.322 0 -3.00372519933e-10)
(-88.322 0 -1.92795948764e-10)
(-88.322 0 5.73617611125e-11)
(-88.322 0 3.36083543047e-11)
(-88.322 0 4.23753990213e-11)
(-88.322 0 -1.5397548484e-10)
(-88.3220000002 0 -3.20923098241e-10)
(-88.3220000001 0 1.69295237939e-10)
(-88.3219999994 0 2.42297028856e-10)
(-88.3219999996 0 4.04646780474e-10)
(-88.322000001 0 -2.3377077494e-10)
(-88.3220000008 0 -1.3229808794e-10)
(-88.3219999997 0 1.47021892517e-10)
(-88.3219999995 0 1.24059349955e-10)
(-88.3219999999 0 1.27658930495e-10)
(-88.322 0 6.17651249543e-11)
(-88.3220000001 0 7.38994561888e-11)
(-88.3220000006 0 5.68518706542e-11)
(-88.3220000002 0 -3.30931733549e-11)
(-88.3219999994 0 2.53759025246e-11)
(-88.3220000001 0 -4.386706185e-11)
(-88.3220000007 0 -3.00205413704e-10)
(-88.3220000002 0 2.61653519682e-10)
(-88.3219999987 0 3.66802630657e-10)
(-88.3219999987 0 2.1852163487e-10)
(-88.3220000012 0 4.32228758167e-10)
(-88.3220000011 0 -1.73370833326e-10)
(-88.321999999 0 9.28907136002e-12)
(-88.3219999994 0 4.69680662907e-12)
(-88.3220000009 0 -6.26318578118e-12)
(-88.3220000007 0 1.8838796881e-11)
(-88.321999999 0 -1.90415926848e-11)
(-88.3219999997 0 1.4672616802e-11)
(-88.3220000004 0 -3.55801320755e-11)
(-88.3220000003 0 -1.04362794998e-10)
(-88.3219999993 0 1.16254962398e-10)
(-88.3219999993 0 1.14497252165e-10)
(-88.3220000008 0 1.86244220758e-10)
(-88.3219999998 0 -2.32672708206e-10)
(-88.3220000003 0 -2.61152826257e-10)
(-88.3220000005 0 2.40890102622e-10)
(-88.322 0 -2.32351784033e-11)
(-88.3220000004 0 4.04022167885e-11)
(-88.321999999 0 2.17650623701e-10)
(-88.3219999986 0 3.37203176919e-10)
(-88.3220000013 0 3.10293679541e-10)
(-88.3220000011 0 -8.64419000242e-11)
(-88.321999999 0 -8.86921144998e-11)
(-88.321999999 0 -1.68139326303e-10)
(-88.3220000004 0 2.66118560821e-10)
(-88.3220000003 0 1.94155167799e-10)
(-88.3219999997 0 1.43013307703e-10)
(-88.322 0 -8.58959254348e-11)
(-88.322 0 -1.23365155996e-10)
(-88.3220000001 0 3.53584330566e-11)
(-88.322 0 -2.02435610005e-11)
(-88.322 0 -5.99135746241e-12)
(-88.322 0 -1.62518923326e-11)
(-88.3219999998 0 1.34680047931e-11)
(-88.3220000002 0 2.30097378849e-11)
(-88.3220000006 0 1.1307928153e-11)
(-88.3220000001 0 -6.40736228143e-12)
(-88.322 0 -5.92043795689e-11)
(-88.3220000003 0 -1.33151547098e-11)
(-88.3219999999 0 -3.5569260151e-11)
(-88.3219999993 0 -2.3792145155e-11)
(-88.3219999995 0 -1.42809299909e-13)
(-88.322 0 -1.78485577485e-11)
(-88.3220000003 0 -6.20984831232e-12)
(-88.3220000008 0 5.96950135793e-12)
(-88.3219999994 0 -3.58293195375e-11)
(-88.3219999989 0 7.67811631973e-11)
(-88.3219999995 0 3.69957498651e-11)
(-88.3220000009 0 -1.75342665577e-10)
(-88.3220000011 0 -1.55618485457e-10)
(-88.3219999993 0 2.41722682946e-10)
(-88.3219999995 0 2.721757654e-10)
(-88.322 0 1.0758353815e-10)
(-88.322 0 -1.18216925025e-11)
(-88.322 0 7.85732346661e-11)
(-88.322 0 -2.62014188549e-11)
(-88.3220000002 0 1.07715852188e-10)
(-88.322 0 2.98209610468e-10)
(-88.322 0 2.11980950228e-10)
(-88.322 0 -3.05935293109e-11)
(-88.322 0 2.71015354894e-10)
(-88.3219999998 0 3.00410824785e-10)
(-88.3219999997 0 3.66900784633e-10)
(-88.3219999999 0 -3.22477534009e-10)
(-88.3220000005 0 -2.62335298841e-10)
(-88.3220000003 0 3.43803046375e-10)
(-88.3219999998 0 2.65597669716e-10)
(-88.322 0 -2.30136568192e-10)
(-88.322 0 -5.04899696196e-11)
(-88.322 0 2.3899437243e-10)
(-88.322 0 3.11513287753e-10)
(-88.322 0 -2.55702539419e-10)
(-88.3220000002 0 1.70366131731e-10)
(-88.3219999998 0 -3.61385627573e-11)
(-88.3219999995 0 3.56747466124e-10)
(-88.3219999999 0 -3.63546187391e-10)
(-88.3220000008 0 1.80450537979e-11)
(-88.3220000009 0 1.92410444464e-11)
(-88.3219999992 0 -1.77371544805e-10)
(-88.3219999994 0 5.72506595696e-11)
(-88.3220000002 0 4.12825097613e-10)
(-88.3220000002 0 3.57362667801e-10)
(-88.3219999998 0 9.87736865125e-11)
(-88.3219999997 0 -2.52181427712e-10)
(-88.3220000007 0 -3.65188584765e-10)
(-88.3220000004 0 3.22603686142e-10)
(-88.3219999998 0 2.27753431167e-10)
(-88.322 0 -1.12510245683e-10)
(-88.322 0 -2.61954249751e-10)
(-88.322 0 6.31128720199e-11)
(-88.322 0 -8.04277612366e-11)
(-88.322 0 1.59077436471e-12)
(-88.322 0 2.28762847332e-11)
(-88.322 0 -2.36493370784e-11)
(-88.322 0 7.44761729166e-11)
(-88.322 0 -1.78897702296e-11)
(-88.322 0 7.14221111545e-11)
(-88.322 0 -5.67691196527e-11)
(-88.322 0 -5.04150267153e-11)
(-88.322 0 -7.22053162562e-11)
(-88.3220000001 0 -2.48293488902e-11)
(-88.322 0 1.56187887804e-10)
(-88.322 0 7.186708566e-11)
(-88.322 0 -6.19721112789e-11)
(-88.322 0 -1.18926861549e-10)
(-88.322 0 1.28559186955e-11)
(-88.322 0 8.64006247816e-12)
(-88.322 0 -5.75403092933e-11)
(-88.322 0 1.46587852885e-10)
(-88.322 0 3.19876811798e-10)
(-88.322 0 -1.66958625152e-10)
(-88.322 0 -2.49888285027e-10)
(-88.322 0 -4.10751322931e-10)
(-88.3220000001 0 2.07607813371e-10)
(-88.322 0 1.32128809528e-10)
(-88.3219999999 0 -1.38743311886e-10)
(-88.322 0 -1.21224211974e-10)
(-88.322 0 -1.30014804812e-10)
(-88.322 0 -8.02039747987e-11)
(-88.322 0 -7.71906631348e-11)
(-88.322 0 -3.81378313235e-11)
(-88.322 0 2.56184993846e-11)
(-88.322 0 7.56131540497e-11)
(-88.322 0 -9.51835793633e-11)
(-88.322 0 1.49266110694e-10)
(-88.322 0 -1.86222392317e-10)
(-88.3219999999 0 -2.52033192141e-10)
(-88.322 0 -2.5587753495e-10)
(-88.3219999999 0 2.68275305651e-11)
(-88.322 0 -1.60194412661e-10)
(-88.3220000002 0 -2.81626844358e-10)
(-88.322 0 2.02254766282e-10)
(-88.322 0 1.80001478621e-10)
(-88.322 0 -1.93264563415e-10)
(-88.322 0 -8.45631470174e-12)
(-88.322 0 -2.93485619699e-10)
(-88.322 0 -2.73724455163e-10)
(-88.322 0 -5.87915514911e-11)
(-88.322 0 -3.44322732406e-10)
(-88.322 0 -1.84859141501e-10)
(-88.322 0 -2.21601668263e-10)
(-88.3220000002 0 1.66786154472e-10)
(-88.3220000003 0 2.52374767345e-10)
(-88.3219999993 0 -2.55446444255e-10)
(-88.3219999995 0 3.18452128142e-12)
(-88.3220000011 0 -2.03522900321e-10)
(-88.3220000002 0 2.04651711844e-10)
(-88.3219999995 0 -2.57083375651e-10)
(-88.3220000002 0 -5.18123815122e-10)
(-88.322 0 -1.84217445871e-10)
(-88.3219999999 0 -7.03424462979e-12)
(-88.322 0 8.10112168447e-11)
(-88.322 0 2.22806236706e-11)
(-88.322 0 1.63096370231e-12)
(-88.322 0 2.35640392858e-12)
(-88.322 0 5.81702062764e-11)
(-88.322 0 -1.42436744379e-10)
(-88.322 0 -3.92838738051e-11)
(-88.322 0 -2.08888172796e-12)
(-88.322 0 -2.48076011832e-11)
(-88.322 0 -5.87606059978e-12)
(-88.322 0 1.23228248805e-11)
(-88.3220000003 0 -2.39749987467e-11)
(-88.3220000005 0 4.28482072985e-11)
(-88.3219999996 0 -6.98070325701e-11)
(-88.3219999998 0 3.62369913033e-10)
(-88.3220000007 0 -3.43301038443e-10)
(-88.3220000003 0 -3.85055092325e-10)
(-88.3219999992 0 9.43730805952e-12)
(-88.3219999993 0 -2.06719640591e-11)
(-88.3220000002 0 -9.63119805376e-12)
(-88.322 0 -4.44133484427e-12)
(-88.322 0 -9.65991340151e-12)
(-88.322 0 7.33390728476e-12)
(-88.322 0 -3.52999201745e-12)
(-88.322 0 -6.25112920055e-12)
(-88.322 0 -3.6594070069e-11)
(-88.322 0 -2.68114950833e-11)
(-88.322 0 3.35254142663e-11)
(-88.322 0 -1.79712466203e-11)
(-88.322 0 -5.58061603546e-12)
(-88.322 0 -1.47838904447e-11)
(-88.322 0 -6.85918285694e-12)
(-88.322 0 -2.9551612169e-11)
(-88.322 0 -6.96232057537e-13)
(-88.3219999998 0 6.81041737006e-14)
(-88.3220000003 0 1.25068430859e-12)
(-88.3219999998 0 -7.2458476315e-13)
(-88.3220000002 0 -1.07926220569e-11)
(-88.3220000006 0 1.77253616105e-11)
(-88.3219999998 0 -4.4267952848e-13)
(-88.3219999993 0 -4.11251667452e-11)
(-88.3220000002 0 -1.7096513994e-12)
(-88.3220000008 0 -7.17803035345e-12)
(-88.321999999 0 6.23979094116e-12)