/*--------------------------------*- C++ -*----------------------------------*\
  =========                 |
  \\      /  F ield         | OpenFOAM: The Open Source CFD Toolbox
   \\    /   O peration     | Website:  https://openfoam.org
    \\  /    A nd           | Version:  6
     \\/     M anipulation  |
\*---------------------------------------------------------------------------*/
FoamFile
{
    version     2.0;
    format      ascii;
    class       volScalarField;
    location    "4.5e-05";
    object      p;
}
// * * * * * * * * * * * * * * * * * * * * * * * * * * * * * * * * * * * * * //

dimensions      [1 -1 -2 0 0 0 0];

internalField   nonuniform List<scalar> 
8192
(
6000000.00044
5999999.9994
6000000.00055
6000000.00055
6000000.00384
5999999.99745
6000000.0012
6000000.00008
6000000.00005
5999999.99977
6000000.00025
5999999.99978
6000000.00061
6000000.00142
6000000.0009
6000000.00043
6000000.00066
5999999.99879
5999999.99903
6000000.00069
5999999.99856
5999999.99728
6000000.00174
5999999.9999
5999999.99962
6000000.00009
5999999.99888
5999999.99934
5999999.99823
5999999.99956
6000000.00006
6000000.0003
5999999.99678
5999999.99357
6000000.00773
6000000.00772
5999999.99901
6000000.00472
5999999.99915
5999999.99769
6000000.00239
5999999.99837
5999999.99991
5999999.99994
6000000.00025
6000000.00015
6000000.00001
6000000.00023
5999999.99916
6000000.00118
5999999.99761
6000000.00028
6000000.00276
5999999.9965
5999999.99733
6000000.00157
6000000.00014
6000000.00288
5999999.99967
6000000.0049
5999999.99694
5999999.99766
5999999.99729
6000000.00161
6000000.00029
6000000.00167
5999999.99949
6000000.00351
5999999.99635
6000000.00276
5999999.9989
5999999.99755
6000000.00247
6000000.00285
6000000.00687
5999999.99674
5999999.99409
6000000.00653
6000000.00256
5999999.99567
5999999.99528
5999999.99308
6000000.00316
6000000.00587
6000000.00007
5999999.99897
6000000.00647
6000000.00483
5999999.99817
5999999.99717
5999999.99895
5999999.99854
5999999.99728
6000000.00342
5999999.99732
6000000.0016
6000000.00159
5999999.99967
6000000.00383
5999999.99829
5999999.99973
5999999.99989
5999999.99971
6000000.00007
5999999.99927
6000000.00029
6000000.00011
6000000
5999999.99998
5999999.99998
6000000.00004
6000000.00011
5999999.99964
6000000.00054
5999999.99982
6000000.001
6000000.00016
5999999.99905
6000000.00084
5999999.99947
5999999.99928
5999999.99907
6000000.00002
5999999.99965
6000000.00017
5999999.99959
6000000.00032
6000000.00035
6000000.00539
6000000.00056
5999999.99821
6000000.00062
5999999.99915
5999999.99936
6000000.00002
5999999.99992
6000000.00022
6000000.00093
5999999.9985
6000000.00382
6000000.00084
6000000.00324
6000000.00464
5999999.9971
5999999.99633
5999999.99803
6000000.00229
6000000.00232
5999999.99999
5999999.99985
5999999.99885
6000000.00081
5999999.9953
6000000.00116
5999999.99651
5999999.99645
6000000.0012
6000000.00034
5999999.99884
5999999.99915
5999999.9998
5999999.9996
6000000.00029
6000000.00053
5999999.99969
6000000.00245
6000000.00021
6000000.00084
5999999.99856
6000000.00044
5999999.99791
6000000.00302
6000000.00225
6000000.00279
6000000.00194
6000000.0043
6000000.00224
6000000.00098
5999999.99437
6000000.00242
6000000.00134
5999999.99848
6000000.00075
5999999.99818
6000000.00251
6000000.00121
6000000.00222
5999999.99444
5999999.99233
6000000.00184
6000000.0064
6000000.00418
5999999.99945
5999999.99982
6000000.00038
6000000.00006
5999999.99992
6000000.00001
5999999.99997
6000000.00001
6000000.00015
6000000.00001
6000000.00011
5999999.99804
5999999.9979
6000000.00248
5999999.99927
5999999.99999
6000000.00003
5999999.99998
6000000.00006
6000000.00018
6000000.00017
5999999.99945
5999999.99994
6000000.00003
5999999.99983
5999999.99998
5999999.99991
5999999.99677
6000000.00021
6000000.00141
5999999.99731
6000000.00088
6000000.00705
5999999.99396
5999999.99669
6000000.00542
6000000.00869
5999999.99171
5999999.99619
6000000.00173
6000000.00372
5999999.99606
6000000.00293
6000000.00003
6000000.00423
5999999.99815
6000000.00723
6000000.0037
5999999.99251
6000000.00028
6000000.00552
5999999.9979
6000000.00503
5999999.99473
5999999.99892
6000000.00176
6000000.00261
6000000.00318
6000000.00063
6000000.00206
6000000.0006
5999999.99897
5999999.99942
5999999.99917
5999999.99979
5999999.99893
6000000.00034
5999999.99821
6000000.00261
5999999.9987
5999999.99981
5999999.99944
5999999.99987
5999999.99992
5999999.99999
6000000.00083
6000000.00143
5999999.9973
6000000.00048
6000000.00051
6000000.00015
6000000.00227
5999999.99551
5999999.9974
6000000.00551
6000000.00155
5999999.99617
5999999.99541
5999999.99909
5999999.99525
5999999.99831
5999999.99492
6000000.00125
6000000.00436
5999999.99666
6000000.00058
5999999.9991
6000000.00135
5999999.99979
5999999.9992
6000000.00167
5999999.99756
6000000.00127
5999999.99998
6000000.00003
6000000.00016
6000000.00001
6000000.00001
6000000.00002
6000000.00018
5999999.99896
6000000.0017
5999999.99745
5999999.99973
5999999.99895
6000000.00101
6000000.00457
5999999.9982
5999999.9946
6000000.00242
6000000.00536
5999999.99822
6000000.00342
5999999.99825
6000000.00584
5999999.99708
5999999.99723
5999999.99672
6000000.00221
6000000.0016
5999999.99647
6000000.00175
6000000.00066
6000000.00063
6000000.00064
5999999.99944
6000000.00002
6000000.00023
5999999.99866
6000000.00274
6000000.00239
6000000.00093
6000000.00015
5999999.99967
5999999.99762
5999999.99787
6000000.00053
6000000.00061
5999999.99991
5999999.99884
5999999.99826
6000000.00093
5999999.99705
6000000.00072
5999999.99715
5999999.99416
5999999.99637
6000000.00295
5999999.99768
5999999.99619
6000000.00734
5999999.99874
6000000.00311
6000000.00021
5999999.99751
6000000.00392
5999999.99644
6000000.00313
5999999.99971
5999999.9996
6000000.00033
6000000.00001
6000000.00028
6000000.00009
6000000.00024
6000000.00172
5999999.99849
6000000.00276
6000000.00078
5999999.99822
6000000.00157
5999999.99981
5999999.9998
6000000.00405
5999999.99875
6000000.00306
6000000.00324
5999999.99356
5999999.99344
5999999.99584
5999999.99878
6000000.00069
6000000.00152
6000000.00193
5999999.99532
5999999.99172
6000000.00163
5999999.99676
5999999.99862
6000000.00514
5999999.99852
5999999.99888
6000000.00157
5999999.99726
5999999.99794
6000000.00658
5999999.99602
5999999.99878
5999999.99354
6000000.00125
6000000.00534
6000000.00006
5999999.99794
5999999.99167
6000000.00327
5999999.9997
6000000.00375
5999999.99823
5999999.99704
6000000.00252
5999999.99517
5999999.99448
6000000.00014
6000000.00308
5999999.99818
5999999.99786
5999999.99755
6000000.00185
6000000.00214
5999999.99839
6000000.00143
5999999.99882
5999999.99944
6000000.00053
5999999.99982
5999999.99998
6000000.00005
5999999.99986
6000000.00095
5999999.99675
6000000.00082
6000000.00013
5999999.99955
5999999.99757
6000000.00125
6000000.00065
5999999.99889
6000000.00074
6000000.00108
5999999.99825
5999999.99912
6000000.00025
5999999.99945
5999999.99769
5999999.99712
5999999.99874
5999999.99649
6000000.00172
6000000.00177
6000000.00063
6000000.00026
5999999.99947
6000000.00199
5999999.99823
6000000.00282
6000000.00207
5999999.99517
6000000.00435
6000000.00157
6000000.00046
6000000.00086
5999999.99867
6000000.00206
5999999.99946
5999999.99939
6000000.00044
6000000.00012
5999999.99975
5999999.998
6000000.00282
5999999.99755
5999999.99961
6000000.00119
5999999.9975
6000000.00278
5999999.99732
6000000.00162
5999999.99927
5999999.99998
5999999.99817
6000000.00265
6000000.00637
5999999.99805
5999999.9982
6000000.00042
6000000.00254
5999999.99884
5999999.99815
6000000.00424
5999999.99854
5999999.99993
5999999.9999
6000000.00062
6000000.00262
5999999.99793
6000000.00365
5999999.99863
5999999.99871
6000000.00173
5999999.99982
5999999.99979
6000000.00274
6000000.00111
6000000.00216
5999999.99936
5999999.99874
5999999.99944
5999999.99683
5999999.99563
6000000.00213
6000000.00056
5999999.99871
5999999.99966
5999999.99921
6000000.00001
5999999.99884
6000000.00032
5999999.99946
6000000.00013
6000000.00019
6000000.00002
6000000.00003
5999999.99949
6000000.00021
6000000.00003
5999999.99988
5999999.99989
5999999.99983
6000000.00008
6000000.00008
5999999.99987
5999999.99989
5999999.99982
6000000.00002
5999999.99981
5999999.99992
5999999.99981
5999999.99986
6000000.00001
6000000
5999999.99981
5999999.99998
6000000
5999999.99996
5999999.99865
6000000.00265
5999999.99826
5999999.99943
5999999.99951
5999999.99953
6000000.00004
5999999.99998
6000000.00001
6000000.00004
6000000.0004
6000000.00017
6000000.00002
6000000.00006
5999999.99972
5999999.99767
6000000.00254
6000000.00171
5999999.9992
5999999.99408
5999999.99245
6000000.00191
6000000.0047
6000000.0016
6000000.00408
5999999.99674
6000000.00454
5999999.99397
6000000.00063
5999999.99669
6000000.00048
6000000.00033
6000000.00194
5999999.99932
6000000.00157
5999999.99729
6000000.00091
6000000.00013
6000000.00004
6000000.00022
6000000.00011
5999999.99987
5999999.99927
6000000.00183
5999999.99985
6000000.00001
6000000.00002
5999999.99992
5999999.99993
6000000.00004
6000000.00022
5999999.99962
5999999.9992
5999999.99912
5999999.99879
5999999.99981
5999999.99895
5999999.99788
6000000.00115
6000000.00074
6000000.00064
6000000.00182
5999999.99793
5999999.99712
6000000.00773
6000000.00351
6000000.00086
6000000.0035
5999999.99749
5999999.99931
6000000.00019
5999999.99982
6000000.00023
6000000.00006
6000000.00047
5999999.99995
6000000.00185
5999999.99915
5999999.99912
5999999.99997
5999999.99969
6000000.00034
6000000.00431
6000000.00004
5999999.99761
6000000.00313
6000000.00197
6000000.00098
6000000.00089
5999999.99745
5999999.99853
6000000.00477
6000000.00419
6000000.00285
5999999.99806
5999999.99781
6000000.00239
5999999.99973
5999999.99851
5999999.99782
6000000.00279
6000000.00189
6000000.00025
6000000.0012
5999999.99884
6000000.00076
5999999.99959
6000000.00057
6000000.00057
6000000.00051
6000000.0006
5999999.99935
5999999.99903
6000000.00177
6000000.0014
5999999.99385
5999999.99516
6000000.00358
6000000.00137
6000000.00014
5999999.99845
6000000.00242
5999999.99771
6000000.00084
6000000.00148
6000000.00235
5999999.99411
6000000.00291
6000000.00178
6000000.00533
5999999.99506
5999999.99748
6000000.00144
6000000.00118
5999999.99443
5999999.99862
6000000.00296
6000000.00574
5999999.99893
6000000.00177
6000000.0014
6000000.00468
5999999.99713
6000000.00111
6000000.00169
5999999.99606
6000000.00329
6000000.00319
6000000.00569
6000000.00887
5999999.99507
5999999.99772
6000000.00414
6000000.00592
5999999.99402
5999999.99425
6000000.00231
5999999.99759
6000000.00001
6000000.00035
5999999.99734
6000000.00258
5999999.99785
6000000.00147
5999999.99719
5999999.99566
6000000.00277
6000000.00358
5999999.99921
6000000.00355
6000000.00165
6000000.00063
5999999.99947
6000000.00002
5999999.9985
6000000.00393
6000000.00775
5999999.99641
5999999.99884
5999999.99204
6000000.00533
6000000.00609
5999999.9959
5999999.99677
5999999.9963
5999999.99769
5999999.99618
6000000.00024
5999999.99937
6000000.00033
5999999.99972
5999999.99952
6000000.00264
5999999.99547
5999999.99576
5999999.99661
6000000.00533
5999999.99996
5999999.99964
6000000.00096
5999999.99951
6000000.00196
5999999.99937
6000000.00155
6000000.00617
5999999.99614
5999999.995
5999999.99409
6000000.00248
6000000.00244
5999999.99341
5999999.99778
5999999.99674
6000000.00138
5999999.99849
5999999.99435
6000000.00397
6000000.00337
6000000.00004
6000000.00089
5999999.99998
6000000.00018
6000000.00006
6000000.00006
6000000.00001
5999999.99998
5999999.99992
5999999.99989
6000000.00015
6000000.00011
5999999.99928
6000000.00122
6000000.00481
6000000.00029
6000000.0003
6000000.00202
5999999.99928
6000000.00248
6000000.00043
5999999.99966
5999999.99993
5999999.9999
6000000.00158
5999999.99776
5999999.99758
6000000.00138
5999999.99787
6000000.00062
5999999.9995
5999999.99991
5999999.99974
6000000
5999999.99985
6000000.00004
5999999.9999
5999999.99737
6000000.00266
5999999.99909
5999999.99941
5999999.99998
5999999.99694
6000000.00076
6000000.00063
6000000.00004
6000000.00023
5999999.99897
6000000.00297
5999999.99986
5999999.99998
6000000.00053
5999999.99952
6000000.00044
5999999.99832
6000000.00434
6000000.00295
5999999.9968
5999999.99811
6000000.00218
5999999.99804
6000000.00293
5999999.99966
6000000.00001
5999999.99998
5999999.99975
6000000.00005
5999999.99974
6000000.00111
5999999.99772
6000000.00173
6000000.00079
6000000.00056
5999999.99963
6000000.00045
5999999.99731
6000000.00589
6000000.00303
5999999.99523
6000000.00156
6000000.0033
6000000.00409
5999999.9968
5999999.99585
6000000.00259
5999999.99878
5999999.99973
6000000.00008
5999999.99994
5999999.99992
5999999.99998
6000000.00002
5999999.99989
5999999.99993
5999999.99989
6000000.00006
5999999.99898
6000000.00154
5999999.99772
5999999.99943
6000000.00147
5999999.99454
6000000.00447
6000000.00436
6000000.00175
5999999.99908
6000000.00343
6000000.00487
5999999.99781
5999999.99671
6000000.00381
5999999.9998
6000000.00331
6000000.00475
6000000.00057
6000000.00598
6000000.00001
5999999.99978
6000000.00102
6000000.00074
5999999.99991
5999999.99999
6000000.00339
5999999.99899
6000000.00119
6000000.00193
6000000.00331
6000000.0019
5999999.99463
6000000.0011
6000000.00041
5999999.99991
5999999.99927
6000000.00475
6000000.00245
5999999.99846
6000000.00242
5999999.99987
5999999.9998
6000000.00068
5999999.99933
6000000.00162
5999999.9933
6000000.00284
6000000.002
5999999.99948
5999999.99962
6000000.00022
6000000.00044
6000000.00025
6000000.00004
6000000.00002
6000000.00001
6000000.00001
5999999.99989
6000000.00001
5999999.99981
6000000.00001
6000000.00004
5999999.99959
6000000.00048
5999999.99997
5999999.99981
5999999.99989
6000000.00003
5999999.9992
5999999.99988
6000000.00029
6000000.0007
5999999.9981
5999999.99831
6000000.00088
6000000.00098
5999999.99969
6000000.0004
5999999.99881
6000000.00227
6000000.0017
6000000.00058
6000000.00034
5999999.99948
5999999.99876
6000000.00218
5999999.99518
6000000.00671
5999999.99664
5999999.99547
6000000.00441
6000000.00337
6000000.00545
6000000.00006
6000000.00021
5999999.99604
5999999.99518
5999999.99624
6000000.00123
5999999.9977
6000000.00423
5999999.99968
5999999.99812
6000000.00071
5999999.99788
6000000.00114
5999999.99807
6000000.00434
5999999.99467
5999999.99676
6000000.00509
5999999.9958
5999999.99691
5999999.99841
6000000.00115
6000000.00121
6000000.00084
6000000.00002
6000000.00091
5999999.99992
6000000.00192
5999999.99592
6000000.00114
6000000.00072
5999999.99993
5999999.99776
5999999.99965
5999999.99978
5999999.99762
5999999.99898
6000000.00086
5999999.99995
6000000.00102
6000000.00177
5999999.99842
5999999.99893
6000000.00345
5999999.9993
5999999.99986
5999999.99998
6000000.00001
6000000.00001
6000000.00013
6000000.00002
6000000
6000000.00017
6000000.0004
5999999.99727
6000000.00018
5999999.99995
5999999.99981
6000000.00002
6000000.00047
5999999.99821
6000000.00265
6000000.00178
5999999.99497
6000000.00682
5999999.99382
5999999.99247
6000000.00335
6000000.00516
5999999.99338
5999999.99781
5999999.99797
5999999.99976
6000000.00157
5999999.99857
6000000.00117
5999999.99705
5999999.9978
5999999.99978
5999999.99834
6000000.00203
5999999.99743
6000000.00185
6000000.00315
5999999.99538
5999999.99683
5999999.99549
5999999.9997
6000000.00468
6000000.00157
5999999.99629
5999999.99298
6000000.00397
6000000.00331
5999999.9946
5999999.99867
6000000.00467
6000000.004
5999999.99737
5999999.99845
6000000.00316
5999999.99995
6000000.00002
6000000.00001
6000000
6000000.00028
6000000.00154
5999999.99872
5999999.9986
5999999.99931
5999999.99989
6000000.00057
6000000.00007
6000000.00026
5999999.99871
5999999.99797
6000000.00116
6000000.00017
6000000.00003
6000000.00002
6000000
5999999.99982
5999999.99996
6000000.00009
5999999.99982
5999999.99858
6000000.00019
6000000.00255
5999999.99788
6000000.00001
5999999.99995
5999999.99589
6000000.00133
6000000.00063
6000000.00305
6000000.00133
6000000.00021
6000000.00047
6000000.00038
5999999.99779
6000000.00347
5999999.99759
6000000.00218
6000000.00152
6000000.00425
5999999.99971
5999999.9996
6000000.00597
6000000.0024
6000000.00237
6000000.00172
5999999.99603
5999999.99911
6000000.00194
6000000.00018
5999999.99753
5999999.99796
6000000.00135
5999999.99681
5999999.99941
5999999.99757
6000000.00021
6000000.00214
5999999.99919
5999999.99898
5999999.99871
5999999.99985
5999999.99979
6000000.00048
6000000.00009
6000000.00018
5999999.99948
6000000.00115
6000000.0014
5999999.99743
5999999.99999
6000000.00009
6000000.00002
6000000.00009
6000000.00005
6000000.00032
6000000.00114
5999999.99871
6000000.00184
6000000.00129
5999999.99704
6000000.00419
5999999.99489
5999999.99931
6000000.00266
6000000.00656
6000000.00312
6000000.0016
6000000.00167
5999999.99381
5999999.99764
5999999.99833
5999999.99969
6000000.00225
6000000.00514
5999999.9939
5999999.99711
5999999.99461
6000000.00589
6000000.0028
6000000.00251
5999999.99911
6000000.00047
6000000.00081
6000000.00138
5999999.99952
5999999.99908
5999999.99969
6000000.00001
6000000
6000000.00058
5999999.9992
6000000.00094
5999999.99927
6000000.00026
5999999.99887
5999999.99578
6000000.00195
6000000.0008
5999999.99579
5999999.99542
6000000.00561
5999999.99777
5999999.99566
6000000.0018
6000000.00646
5999999.9952
6000000.00357
5999999.999
5999999.99891
6000000.00407
5999999.99976
6000000.00013
6000000
6000000.00001
6000000.00005
6000000.00001
6000000.00005
6000000.00002
6000000.00007
6000000.00019
6000000.00025
6000000.00004
6000000.00002
5999999.99983
6000000.00049
6000000.00165
5999999.99643
6000000.00354
6000000.00515
5999999.99853
6000000.00166
6000000.00129
6000000.00154
5999999.9995
6000000.00044
5999999.99389
6000000.00092
5999999.9992
6000000.00151
6000000.00153
5999999.99893
5999999.99872
5999999.99925
5999999.99945
6000000.00015
5999999.99904
6000000.001
6000000.00231
5999999.99867
5999999.99948
5999999.99945
6000000.0004
6000000.00004
6000000.00001
5999999.99995
5999999.99946
6000000.00047
5999999.9995
5999999.99759
6000000.00299
5999999.99703
6000000.00184
5999999.99935
5999999.99956
5999999.99972
5999999.99927
6000000.00206
5999999.99536
6000000.00204
5999999.9995
5999999.99966
6000000.00002
5999999.99946
5999999.99992
5999999.99992
6000000.00052
5999999.99913
5999999.99916
6000000.00002
5999999.99993
5999999.99992
5999999.99998
6000000.00009
5999999.99993
5999999.99988
6000000.00001
5999999.99992
5999999.9999
6000000.00001
5999999.9999
6000000.00052
5999999.99999
6000000.00013
6000000.00012
6000000.00101
5999999.99884
6000000.00195
5999999.99714
6000000.00169
6000000.00116
6000000.00199
6000000.00249
5999999.9971
5999999.99961
5999999.9984
6000000.00158
5999999.99913
5999999.99797
6000000.00073
5999999.99876
5999999.99941
5999999.99985
6000000.00035
6000000.00346
6000000.00115
6000000.00329
5999999.99888
6000000.00027
6000000.00193
5999999.99557
6000000.00136
5999999.99683
6000000.0041
6000000.00263
5999999.99502
5999999.99578
5999999.99548
6000000.00515
6000000.002
6000000.00593
5999999.99696
5999999.99715
6000000.00096
5999999.99427
5999999.99529
5999999.99745
5999999.9982
6000000.00115
5999999.99616
5999999.9976
5999999.99272
5999999.99962
5999999.9951
5999999.9977
5999999.99701
5999999.99695
5999999.99674
5999999.99545
6000000.00345
6000000.00066
6000000.00079
5999999.9961
6000000.00117
6000000.00002
5999999.99976
6000000.00029
5999999.99959
5999999.99982
5999999.99675
6000000.004
5999999.99414
5999999.99431
6000000.00138
5999999.99502
5999999.99499
6000000.00617
5999999.99525
5999999.99396
6000000.00065
6000000.00161
5999999.99991
6000000.00042
6000000.00007
6000000.00004
5999999.99989
6000000.00042
5999999.99953
6000000.00043
6000000.00011
6000000.00011
6000000.00005
5999999.99992
5999999.99993
6000000.00006
6000000.00069
5999999.99909
5999999.99948
6000000.00127
5999999.99982
5999999.99993
5999999.99981
5999999.99956
5999999.99907
6000000.00028
6000000.00002
5999999.99956
5999999.99992
5999999.99957
6000000.00016
6000000.00138
5999999.99941
6000000.00094
6000000.00197
6000000.00237
5999999.99724
5999999.99808
6000000.00225
5999999.99977
6000000.00043
6000000.00052
5999999.99773
6000000.0022
6000000.00158
6000000.00032
5999999.99908
6000000.00007
5999999.99781
6000000.00229
6000000.00052
6000000.00119
5999999.99911
5999999.99845
6000000.00463
6000000.00498
5999999.99279
5999999.99709
6000000.00214
6000000.00151
5999999.9988
6000000.00127
6000000.00017
6000000.00276
5999999.99897
6000000.00131
5999999.99985
5999999.99991
6000000.00001
6000000.00003
5999999.99996
5999999.99998
5999999.99998
6000000.00001
6000000.00003
6000000.00013
6000000.00001
6000000.00001
6000000.00001
5999999.99998
6000000.00016
6000000
6000000.00001
5999999.99993
5999999.99995
6000000.00013
6000000.00003
5999999.99995
6000000.00013
6000000.00001
6000000.00001
5999999.99991
6000000.00008
5999999.99995
6000000.00002
6000000.00008
5999999.99958
5999999.99954
5999999.9998
6000000.00015
6000000.00185
5999999.99923
5999999.99978
5999999.99992
6000000.00006
6000000.00001
6000000.00009
5999999.99993
6000000.00001
6000000.00001
5999999.99996
5999999.99949
6000000.00047
5999999.99884
6000000.00233
6000000.00002
5999999.99906
6000000.0015
5999999.99866
6000000.00269
6000000.004
5999999.99918
5999999.99965
6000000.00636
6000000.00101
6000000.00058
6000000.00042
5999999.99982
6000000.00004
6000000.00006
6000000.00022
6000000.00004
6000000.00007
6000000.00007
5999999.99968
6000000.0004
6000000.00016
6000000.00023
6000000.00013
5999999.99989
6000000.00002
5999999.99992
6000000.00002
6000000.00001
6000000.00056
5999999.99825
5999999.99792
6000000.00315
5999999.9979
6000000.0029
5999999.99759
5999999.99917
6000000.00009
5999999.99769
5999999.99921
6000000.00271
5999999.99616
5999999.99427
6000000.00049
5999999.9944
5999999.99315
6000000.00158
5999999.99721
5999999.99937
5999999.99624
6000000.00183
6000000.0017
5999999.99767
6000000.00344
5999999.9982
5999999.99841
6000000.00165
6000000.00154
6000000.00026
5999999.99956
5999999.9999
6000000.00004
5999999.99992
5999999.99985
6000000.00073
5999999.9996
6000000.00127
5999999.99874
5999999.99867
6000000.00029
5999999.9989
5999999.99945
5999999.99812
5999999.99902
5999999.99907
5999999.99995
5999999.99905
6000000.00322
5999999.99935
5999999.99913
5999999.99962
5999999.99998
5999999.99996
5999999.99987
5999999.99984
6000000.00019
5999999.99998
5999999.99996
6000000.00012
6000000.00002
5999999.99998
6000000.00005
5999999.99998
6000000.00015
5999999.99985
6000000.0007
5999999.99788
5999999.99923
6000000.00039
6000000.00001
5999999.99998
5999999.99998
5999999.99999
5999999.99989
5999999.99985
5999999.99998
5999999.99991
5999999.9993
6000000.00051
5999999.99955
6000000.00065
5999999.99983
5999999.99983
6000000.00138
5999999.99958
5999999.99984
5999999.99994
6000000.00006
5999999.99991
5999999.99998
5999999.99987
5999999.99991
5999999.99998
5999999.99988
5999999.99918
6000000.00024
5999999.99905
6000000.00281
5999999.99922
6000000.00037
6000000.00011
5999999.99985
5999999.99983
6000000.00065
5999999.99946
5999999.99552
6000000.00268
6000000.00011
6000000.00011
6000000.0001
6000000.00072
6000000.00069
5999999.99837
6000000.00279
6000000.00336
6000000.00041
5999999.99848
6000000.00263
6000000.00177
5999999.99817
6000000.00394
6000000.0004
6000000.00251
5999999.9969
5999999.99781
6000000.00067
5999999.99909
6000000.00002
5999999.9973
6000000.00313
6000000.00057
5999999.99957
6000000.00014
5999999.99841
6000000.00215
5999999.99876
6000000.00167
5999999.99616
6000000.00451
6000000.00399
5999999.99802
6000000.0015
5999999.99382
5999999.99341
6000000.00355
6000000.0028
6000000.00523
5999999.99872
5999999.99653
6000000.00454
5999999.99672
5999999.99849
5999999.99895
5999999.99882
6000000.00032
5999999.9994
6000000.00013
5999999.99971
5999999.99976
6000000.00008
5999999.99831
6000000.00138
5999999.99972
5999999.99959
6000000.00104
5999999.99917
6000000.00081
5999999.99683
5999999.99998
5999999.99999
5999999.99964
5999999.99876
5999999.99843
6000000.00166
6000000.00077
5999999.99958
6000000.00551
6000000.00236
5999999.99619
6000000.00252
5999999.99871
6000000.00538
6000000.00368
5999999.99707
5999999.99579
5999999.99878
6000000.00653
6000000.00199
5999999.99766
5999999.99709
5999999.99535
6000000.00295
5999999.99687
5999999.99536
5999999.99881
5999999.99469
6000000.00409
5999999.99739
5999999.99719
5999999.99886
6000000.0015
5999999.99746
5999999.99839
6000000.00157
6000000.00105
5999999.99728
5999999.99745
5999999.99637
5999999.99642
5999999.99696
5999999.99793
6000000.00029
5999999.99463
5999999.99452
6000000.00064
5999999.99984
5999999.99589
5999999.99609
5999999.99524
5999999.99445
6000000.00464
5999999.99773
5999999.99346
5999999.99966
5999999.9955
6000000.00188
6000000.00503
5999999.99253
5999999.99435
5999999.99764
6000000.0052
6000000.00143
5999999.99842
6000000.00349
6000000.00432
5999999.99981
6000000.0061
5999999.99619
5999999.99355
6000000.00374
6000000.00148
5999999.99949
5999999.99458
5999999.99643
6000000.00276
5999999.99605
5999999.99852
6000000.0021
5999999.99893
6000000.00292
6000000.00716
6000000.00332
5999999.9994
5999999.99521
5999999.99719
6000000.00587
6000000.00226
5999999.99557
5999999.99705
6000000.00086
6000000.00632
6000000.001
5999999.99892
5999999.99983
6000000.00216
5999999.99841
5999999.99911
6000000.0041
6000000.00218
5999999.99695
6000000.00267
5999999.99661
5999999.99962
5999999.99737
6000000.00099
6000000.00162
5999999.99402
5999999.99998
6000000.00109
5999999.99412
5999999.99766
6000000.00333
5999999.99814
5999999.99813
6000000.00303
5999999.99859
5999999.99661
5999999.99598
5999999.99851
5999999.99673
5999999.99929
5999999.99784
6000000.00689
5999999.99754
6000000.00086
6000000.00535
5999999.99861
6000000.00198
6000000.00007
6000000.00877
5999999.99703
6000000.00057
6000000.00645
6000000.00708
5999999.99885
5999999.99765
6000000.01011
6000000.00798
6000000.00617
5999999.99809
5999999.9978
6000000.00804
6000000.00864
6000000.00175
6000000.00673
6000000.00242
5999999.99477
6000000.00679
6000000.00814
6000000.00009
5999999.9971
6000000.00766
6000000.00267
5999999.99384
6000000.00238
6000000.00221
6000000.0091
6000000.0079
5999999.99755
6000000.00214
6000000.00736
5999999.99624
5999999.99911
6000000.00658
6000000.00943
6000000.00043
6000000.00627
6000000.00574
6000000.00485
5999999.99801
6000000.00105
6000000.00847
6000000.00952
6000000.01027
6000000.00303
6000000.00286
6000000.00642
6000000.01051
5999999.99968
6000000.00272
6000000.00582
5999999.99652
6000000.00565
6000000.00532
6000000.0098
6000000.00422
6000000.00745
6000000.00584
5999999.99346
6000000.00687
6000000.00218
5999999.99831
6000000.00881
5999999.9988
5999999.99989
5999999.99866
6000000.0005
5999999.99828
5999999.99971
5999999.99898
5999999.99953
5999999.99932
5999999.99948
5999999.99737
5999999.99786
5999999.99959
5999999.99816
6000000.00021
5999999.99822
5999999.99872
5999999.99806
6000000.00017
5999999.99798
5999999.99733
5999999.99842
5999999.99968
5999999.9985
5999999.99881
5999999.99963
5999999.99737
5999999.99851
5999999.99928
5999999.9958
5999999.9984
6000000.00027
5999999.99912
5999999.99663
5999999.99942
5999999.99757
5999999.9999
5999999.99893
5999999.99871
5999999.99668
5999999.99923
5999999.99996
5999999.9979
5999999.99941
5999999.99968
5999999.99868
5999999.99877
5999999.99925
5999999.99673
5999999.99677
5999999.99934
5999999.99992
6000000.00014
6000000.00031
5999999.99815
5999999.99907
5999999.99796
5999999.99821
5999999.99836
5999999.99871
5999999.9996
6000000.00035
6000000.00208
5999999.9984
5999999.99938
5999999.99942
5999999.99979
5999999.99964
6000000.0007
5999999.99974
5999999.99959
6000000.00041
5999999.99973
5999999.99966
5999999.99972
5999999.99972
6000000.00052
5999999.99996
5999999.99976
5999999.99956
6000000.00023
6000000.00036
5999999.9998
6000000.00024
5999999.9998
6000000.00038
5999999.99986
5999999.99976
6000000.00018
5999999.99999
6000000.0004
5999999.99985
6000000.00003
5999999.99953
6000000.0003
6000000.00042
6000000.00019
6000000.00052
5999999.99984
6000000.00046
6000000.00049
5999999.99974
6000000.00018
5999999.99982
6000000.00033
6000000.00008
5999999.99966
6000000.0006
6000000.00023
6000000.00041
6000000.00031
5999999.99954
5999999.99973
5999999.99976
6000000.0001
6000000.00008
6000000.0003
6000000.0004
5999999.9997
5999999.99996
6000000.00025
6000000.00003
6000000.00033
6000000.00012
6000000.00014
6000000.00042
5999999.99968
6000000.00058
6000000.00068
6000000.00091
6000000.00093
6000000.00104
6000000.00067
6000000.00096
6000000.00082
6000000.00126
6000000.0007
6000000.00081
6000000.00079
6000000.00083
6000000.00074
6000000.00077
6000000.00084
6000000.00092
6000000.00073
6000000.00087
6000000.00107
6000000.00085
6000000.00102
6000000.0011
6000000.00065
6000000.00097
6000000.00088
6000000.00085
6000000.00069
6000000.00056
6000000.00093
6000000.00085
6000000.00081
6000000.00092
6000000.00082
6000000.00115
6000000.00068
6000000.00094
6000000.00065
6000000.00079
6000000.00056
6000000.00079
6000000.00095
6000000.00092
6000000.00098
6000000.00085
6000000.00088
6000000.0009
6000000.00075
6000000.00094
6000000.0011
6000000.0011
6000000.00075
6000000.0008
6000000.00074
6000000.00089
6000000.00095
6000000.0009
6000000.00096
6000000.00097
6000000.00098
6000000.00089
6000000.00083
6000000.00113
6000000.00131
6000000.00085
5999999.99902
5999999.9988
5999999.99891
5999999.999
5999999.99881
5999999.9993
5999999.99889
5999999.99884
5999999.99871
5999999.9988
5999999.99893
5999999.99911
5999999.99909
5999999.9989
5999999.99872
5999999.99883
5999999.99877
5999999.99902
5999999.99892
5999999.99909
5999999.99891
5999999.99883
5999999.99912
5999999.99912
5999999.99884
5999999.99893
5999999.99933
5999999.99886
5999999.99894
5999999.99905
5999999.99901
5999999.99942
5999999.99909
5999999.99911
5999999.99887
5999999.99888
5999999.99918
5999999.99879
5999999.99866
5999999.99872
5999999.99904
5999999.99909
5999999.99886
5999999.99905
5999999.999
5999999.99899
5999999.99938
5999999.9991
5999999.99882
5999999.99899
5999999.99889
5999999.99873
5999999.99887
5999999.9987
5999999.99898
5999999.99888
5999999.99903
5999999.99904
5999999.99896
5999999.99895
5999999.99889
5999999.99902
5999999.99889