/*--------------------------------*- C++ -*----------------------------------*\
  =========                 |
  \\      /  F ield         | OpenFOAM: The Open Source CFD Toolbox
   \\    /   O peration     | Website:  https://openfoam.org
    \\  /    A nd           | Version:  6
     \\/     M anipulation  |
\*---------------------------------------------------------------------------*/
FoamFile
{
    version     2.0;
    format      ascii;
    class       volVectorField;
    location    "4.5e-05";
    object      U;
}
// * * * * * * * * * * * * * * * * * * * * * * * * * * * * * * * * * * * * * //

dimensions      [0 1 -1 0 0 0 0];

internalField   nonuniform List<vector> 
8192
(
(-88.3220000001 0 -2.74113427711e-10)
(-88.3219999996 0 -5.59544808927e-11)
(-88.3220000001 0 -6.68676413742e-11)
(-88.3220000002 0 -2.05685964948e-10)
(-88.3219999996 0 -5.96208116732e-11)
(-88.3219999998 0 2.26388009015e-11)
(-88.3220000002 0 -2.68827516278e-12)
(-88.322 0 6.16683394011e-11)
(-88.322 0 -2.18897260607e-10)
(-88.322 0 -5.35556884727e-10)
(-88.3219999999 0 -6.23739810998e-10)
(-88.322 0 3.25924564535e-10)
(-88.3220000001 0 6.15348548876e-10)
(-88.322 0 -6.52081212036e-10)
(-88.3219999999 0 -5.9078834161e-10)
(-88.3219999999 0 3.10804250871e-10)
(-88.3219999999 0 2.07515370207e-10)
(-88.3219999999 0 5.33723392639e-10)
(-88.3220000001 0 -4.03519333988e-10)
(-88.322 0 -4.81191204224e-10)
(-88.3219999998 0 2.54451560782e-10)
(-88.3220000002 0 3.47850586208e-10)
(-88.3220000002 0 -4.90028665688e-10)
(-88.3219999999 0 -5.08360099502e-10)
(-88.322 0 1.38903165084e-10)
(-88.3219999999 0 1.36625654024e-10)
(-88.3219999999 0 1.77636423643e-10)
(-88.3219999999 0 1.45609701761e-10)
(-88.3220000002 0 2.44939532635e-10)
(-88.3220000001 0 -1.21120497453e-10)
(-88.3219999999 0 1.79827311504e-10)
(-88.3219999998 0 -1.75792701829e-11)
(-88.3219999991 0 1.00214717198e-10)
(-88.3220000015 0 4.66909582542e-10)
(-88.3220000022 0 -6.89888107362e-10)
(-88.3219999989 0 -5.63298676091e-10)
(-88.3219999997 0 -2.55914667376e-11)
(-88.3219999996 0 -5.06181970173e-10)
(-88.3219999987 0 1.72849580049e-10)
(-88.3220000005 0 1.37204234586e-10)
(-88.3220000001 0 -2.46481049817e-11)
(-88.3219999999 0 3.68282609521e-11)
(-88.3220000001 0 -1.22056683242e-11)
(-88.322 0 -1.38807888344e-11)
(-88.322 0 -5.03078045211e-11)
(-88.322 0 -2.91828907465e-11)
(-88.322 0 -1.60164623125e-11)
(-88.322 0 -1.3939573651e-11)
(-88.322 0 1.29197858654e-11)
(-88.3219999999 0 -6.57185238681e-11)
(-88.3219999999 0 8.06605423729e-11)
(-88.3220000004 0 -3.24621831953e-11)
(-88.3219999996 0 -1.73630052161e-10)
(-88.3219999995 0 2.76981933379e-10)
(-88.322000001 0 1.56842615686e-10)
(-88.3220000005 0 -2.15718572839e-10)
(-88.3219999999 0 -4.16340084206e-11)
(-88.3219999998 0 -1.46865404815e-10)
(-88.3220000001 0 -3.5122224118e-11)
(-88.3219999993 0 -2.50451590865e-10)
(-88.3219999986 0 2.97675696427e-10)
(-88.3219999998 0 3.61844673421e-10)
(-88.3220000007 0 3.41210534706e-10)
(-88.3220000013 0 2.37760675186e-11)
(-88.322 0 -2.47689343266e-10)
(-88.3219999999 0 -7.19943817052e-11)
(-88.3220000001 0 8.51179330235e-11)
(-88.3219999998 0 5.40734451417e-12)
(-88.322 0 1.73895558048e-10)
(-88.3220000001 0 -1.02211787987e-10)
(-88.3219999997 0 3.0814319184e-11)
(-88.3220000004 0 4.82542160401e-12)
(-88.3220000011 0 -1.47999373119e-12)
(-88.3220000007 0 -4.6207137992e-11)
(-88.3219999984 0 5.00323491196e-11)
(-88.3219999976 0 -1.86107890369e-10)
(-88.3220000018 0 -1.91916931239e-11)
(-88.3220000023 0 -1.53653456835e-10)
(-88.3219999982 0 -2.58112397637e-10)
(-88.3219999985 0 2.463063457e-10)
(-88.3219999997 0 1.64435440985e-10)
(-88.3220000014 0 1.37644982532e-10)
(-88.3220000019 0 -2.84258169461e-10)
(-88.3219999988 0 -1.6852623864e-10)
(-88.3219999986 0 -3.19735191575e-11)
(-88.3220000013 0 2.59780965089e-11)
(-88.3220000015 0 1.69813630065e-10)
(-88.3219999989 0 -6.22279157834e-11)
(-88.3219999987 0 3.87405795086e-10)
(-88.322 0 -2.13329062383e-10)
(-88.3220000001 0 3.00185782852e-10)
(-88.3219999999 0 2.60244011669e-10)
(-88.3220000004 0 -2.51075456528e-11)
(-88.322 0 3.96467186185e-11)
(-88.3219999999 0 4.79391875773e-11)
(-88.3220000003 0 4.79170623616e-12)
(-88.3219999999 0 -1.80375146806e-10)
(-88.3220000002 0 -4.04426965143e-10)
(-88.322 0 4.63896435733e-10)
(-88.3219999997 0 5.5581795323e-10)
(-88.3220000001 0 -4.24153464896e-12)
(-88.322 0 2.8531747903e-10)
(-88.322 0 -1.7476062646e-10)
(-88.322 0 -1.64780885186e-10)
(-88.322 0 8.85261835176e-11)
(-88.322 0 -5.46289728982e-11)
(-88.322 0 3.75150085159e-11)
(-88.322 0 -1.48244725363e-10)
(-88.322 0 -3.74397287233e-10)
(-88.322 0 -3.01844854236e-10)
(-88.322 0 -2.97392915356e-10)
(-88.322 0 -3.30824200183e-10)
(-88.322 0 -3.32699107903e-10)
(-88.322 0 -1.04866102571e-10)
(-88.322 0 2.80003717263e-10)
(-88.3220000001 0 -6.65471269848e-11)
(-88.3219999999 0 4.53875667723e-11)
(-88.322 0 -8.11514946127e-11)
(-88.3220000001 0 -2.45896824968e-10)
(-88.322 0 3.97911540681e-10)
(-88.322 0 -1.40860780898e-10)
(-88.3220000001 0 -1.89062060879e-10)
(-88.322 0 -3.83803638696e-10)
(-88.3219999999 0 7.39373313368e-10)
(-88.322 0 2.75204509773e-10)
(-88.3220000001 0 -7.64234981538e-10)
(-88.3220000001 0 -9.7896133586e-10)
(-88.322 0 -4.07900346248e-10)
(-88.3219999995 0 5.25646083382e-11)
(-88.321999999 0 6.68295820166e-11)
(-88.322 0 -2.02171666941e-11)
(-88.322 0 1.49621449362e-10)
(-88.3219999999 0 -1.07049154575e-10)
(-88.322 0 1.05996632738e-10)
(-88.322 0 -2.6555319562e-11)
(-88.322 0 -6.12901858017e-11)
(-88.3220000001 0 1.91825838058e-10)
(-88.3219999999 0 5.01834534329e-10)
(-88.3220000002 0 5.82406863579e-10)
(-88.3220000001 0 -2.56375044011e-10)
(-88.322 0 -5.49765812468e-10)
(-88.3220000004 0 5.05114688216e-10)
(-88.321999999 0 5.32255620248e-10)
(-88.321999999 0 -3.2392184447e-10)
(-88.3220000001 0 -2.14149462674e-10)
(-88.3220000008 0 -4.89842142016e-10)
(-88.3220000007 0 4.25703088643e-10)
(-88.3219999995 0 4.50996556701e-10)
(-88.3219999994 0 -2.29138948813e-10)
(-88.3219999998 0 -2.22800269766e-10)
(-88.3220000004 0 4.76112388924e-10)
(-88.3219999995 0 5.01295766397e-10)
(-88.3220000003 0 -7.40854056e-11)
(-88.322 0 -1.25867852387e-10)
(-88.321999999 0 -7.81890157969e-11)
(-88.3220000006 0 6.32735450676e-11)
(-88.3220000006 0 -2.54079928719e-11)
(-88.322 0 1.75539649321e-11)
(-88.322 0 8.84706519415e-11)
(-88.3220000003 0 -1.6212028421e-11)
(-88.322 0 -4.13377088996e-10)
(-88.322 0 3.86569016807e-10)
(-88.3220000001 0 5.43648194665e-10)
(-88.322 0 -3.17020820953e-10)
(-88.3220000003 0 -5.98184220614e-10)
(-88.322 0 7.40387650982e-10)
(-88.3219999997 0 3.65485480557e-10)
(-88.322 0 -3.55189925879e-10)
(-88.322 0 -3.93788398714e-10)
(-88.322 0 1.42867868853e-10)
(-88.3220000003 0 -2.48828793385e-10)
(-88.3220000009 0 -5.623411458e-11)
(-88.3220000003 0 -2.91594634907e-10)
(-88.3219999998 0 5.27258839133e-11)
(-88.322 0 -5.11093652332e-10)
(-88.3219999999 0 -5.7146587196e-10)
(-88.3219999996 0 4.19414564207e-10)
(-88.3219999987 0 1.53940741296e-11)
(-88.3219999999 0 -3.20307724653e-10)
(-88.3220000009 0 1.52005439734e-10)
(-88.3219999996 0 -4.01812512213e-10)
(-88.322 0 3.64832053256e-10)
(-88.322 0 3.86275066942e-11)
(-88.3220000003 0 -3.15993885523e-10)
(-88.3220000011 0 -3.21497997806e-10)
(-88.3220000004 0 -3.38167234119e-10)
(-88.3219999983 0 -1.56374781553e-10)
(-88.321999998 0 -1.53650525215e-10)
(-88.3220000017 0 -1.39144006224e-10)
(-88.3220000023 0 7.4997797774e-11)
(-88.322 0 4.3732993033e-11)
(-88.3219999999 0 5.95222831414e-11)
(-88.322 0 5.59939857845e-10)
(-88.322 0 1.62854382825e-10)
(-88.322 0 -1.21739879489e-11)
(-88.322 0 1.35043471335e-10)
(-88.322 0 -1.51468564335e-10)
(-88.322 0 2.90714801015e-11)
(-88.322 0 9.49584719411e-12)
(-88.322 0 3.18524876752e-11)
(-88.322 0 1.51193819353e-11)
(-88.322 0 8.03165609725e-11)
(-88.3219999999 0 -1.86274043698e-11)
(-88.3219999998 0 1.40971287385e-10)
(-88.3220000003 0 -3.17841545687e-12)
(-88.3220000001 0 2.99329909875e-10)
(-88.3219999999 0 2.95450219433e-10)
(-88.322 0 -2.34369947157e-10)
(-88.322 0 -1.57767390951e-10)
(-88.322 0 -2.37758157016e-10)
(-88.322 0 4.03576780396e-10)
(-88.322 0 3.89592653986e-10)
(-88.322 0 -4.42695864404e-10)
(-88.3219999999 0 -5.10499324409e-10)
(-88.322 0 2.95224761319e-10)
(-88.322 0 4.41278134088e-10)
(-88.322 0 -1.73577078934e-10)
(-88.322 0 5.23344150903e-10)
(-88.3219999997 0 -1.91488171844e-10)
(-88.3219999998 0 1.6932204457e-11)
(-88.3220000004 0 -1.06172214386e-10)
(-88.3219999998 0 -2.13329769883e-10)
(-88.3219999999 0 6.04496321494e-11)
(-88.3220000013 0 -7.29122131349e-11)
(-88.321999999 0 4.07482305406e-12)
(-88.3219999984 0 -6.27705354e-11)
(-88.3220000014 0 3.87884119682e-11)
(-88.3220000019 0 8.10503215034e-11)
(-88.3219999981 0 -5.82685569842e-11)
(-88.3219999981 0 3.16019769645e-10)
(-88.3220000021 0 -1.15969307854e-11)
(-88.3220000015 0 2.78894695236e-11)
(-88.321999999 0 -4.80403850568e-11)
(-88.3219999998 0 -8.22003585063e-12)
(-88.3220000003 0 -5.37500132423e-11)
(-88.3220000001 0 1.50242373896e-10)
(-88.3219999998 0 4.03616730217e-10)
(-88.3220000004 0 2.99922930161e-10)
(-88.3220000012 0 3.10690961051e-10)
(-88.3219999982 0 2.33132721539e-10)
(-88.321999999 0 4.51899773955e-10)
(-88.3220000014 0 1.96449507842e-10)
(-88.3219999998 0 -3.22968642259e-10)
(-88.3220000003 0 1.04589271785e-10)
(-88.3219999994 0 -1.54203011162e-10)
(-88.3219999992 0 2.47181563951e-10)
(-88.3220000014 0 5.01832833656e-10)
(-88.3220000006 0 -4.92529608337e-10)
(-88.322 0 -1.18554607047e-10)
(-88.3219999998 0 4.01654543079e-10)
(-88.3219999997 0 8.17455990612e-11)
(-88.3219999998 0 -4.06456356247e-10)
(-88.3219999996 0 -9.00365886589e-10)
(-88.3219999998 0 7.9351560575e-10)
(-88.3220000001 0 8.39784068747e-10)
(-88.322 0 6.36962822149e-10)
(-88.3220000004 0 -2.8450230989e-10)
(-88.3220000001 0 -8.98089061388e-11)
(-88.322 0 1.65771750238e-10)
(-88.3220000003 0 -2.54109610987e-11)
(-88.322 0 -4.27221041897e-11)
(-88.3219999997 0 -1.00528076415e-11)
(-88.322 0 9.28192973762e-12)
(-88.322 0 2.27748605787e-11)
(-88.322 0 1.93199274847e-11)
(-88.322 0 -2.73339371561e-12)
(-88.322 0 4.92144789519e-11)
(-88.3220000001 0 -2.01199936672e-10)
(-88.3219999998 0 -2.15261497151e-10)
(-88.3219999999 0 1.50644676225e-11)
(-88.3220000001 0 -2.02519921008e-11)
(-88.322 0 2.64494076406e-11)
(-88.3220000001 0 1.1253836635e-10)
(-88.3219999996 0 1.18188853193e-10)
(-88.3219999996 0 -1.48841264615e-11)
(-88.3220000012 0 5.66068476487e-12)
(-88.3220000011 0 2.06505839812e-11)
(-88.3219999983 0 1.2511007072e-11)
(-88.3219999986 0 5.54438897089e-11)
(-88.3220000004 0 -1.20636461855e-10)
(-88.3220000001 0 9.6509709608e-11)
(-88.3220000001 0 3.40596549112e-12)
(-88.3219999999 0 2.15816266503e-10)
(-88.3220000004 0 2.57555612582e-10)
(-88.322000001 0 3.1415124232e-10)
(-88.3219999996 0 -1.53185923433e-11)
(-88.3219999997 0 1.56877912696e-10)
(-88.3220000003 0 3.42818878535e-10)
(-88.322 0 -2.56405386919e-11)
(-88.322 0 -4.78750336811e-10)
(-88.3219999999 0 -6.8884493718e-10)
(-88.3220000001 0 1.17613477037e-10)
(-88.3219999998 0 7.51316311919e-10)
(-88.3219999999 0 -9.54921607282e-10)
(-88.3220000002 0 -2.74974292428e-10)
(-88.322 0 1.93560225622e-10)
(-88.322 0 3.4561072764e-10)
(-88.322 0 -1.23209874121e-10)
(-88.322 0 2.20401617604e-10)
(-88.322 0 5.94944789726e-11)
(-88.322 0 2.67516073979e-10)
(-88.322 0 -4.13954209487e-11)
(-88.3220000001 0 5.08527787425e-10)
(-88.3219999998 0 5.00240552502e-10)
(-88.3219999997 0 -3.68108939414e-10)
(-88.3220000003 0 -9.6259749626e-11)
(-88.322 0 2.4523812129e-10)
(-88.3220000005 0 -1.99055493633e-11)
(-88.3219999994 0 3.23245745919e-10)
(-88.3219999987 0 -3.53109011457e-10)
(-88.3220000014 0 -5.12157540939e-11)
(-88.3220000015 0 -2.15449584025e-10)
(-88.3219999993 0 1.04625660486e-10)
(-88.322 0 1.20560464522e-10)
(-88.3219999998 0 -3.0278666446e-10)
(-88.322 0 6.90223335316e-10)
(-88.3219999993 0 5.54364593278e-10)
(-88.3219999988 0 3.53756671393e-10)
(-88.3220000002 0 1.51571530237e-10)
(-88.3220000003 0 1.17210037304e-11)
(-88.3220000002 0 -8.19769521364e-11)
(-88.3219999991 0 -1.76287288771e-10)
(-88.322 0 3.37127593699e-10)
(-88.3220000003 0 5.50247330273e-10)
(-88.322 0 -4.05654968321e-11)
(-88.3219999999 0 4.14073431522e-10)
(-88.322 0 3.32784597446e-10)
(-88.322 0 -3.72380186629e-10)
(-88.322 0 4.65771655473e-12)
(-88.3219999999 0 8.35053867238e-11)
(-88.3220000002 0 -2.84160372858e-11)
(-88.3220000002 0 1.3754074362e-10)
(-88.3219999999 0 1.51120700481e-10)
(-88.3219999999 0 -4.17011025126e-10)
(-88.3219999999 0 4.6531871338e-10)
(-88.3219999998 0 3.77963493688e-10)
(-88.3219999998 0 4.52949323142e-10)
(-88.3220000002 0 1.11151086493e-10)
(-88.3220000002 0 -5.6398069887e-10)
(-88.322 0 -2.2666455488e-10)
(-88.3219999999 0 8.0957454104e-10)
(-88.3219999999 0 9.9086890125e-10)
(-88.3220000003 0 -5.59188343943e-10)
(-88.3219999999 0 -5.65373937763e-10)
(-88.3219999998 0 -3.90012038039e-10)
(-88.3219999998 0 -2.53223132579e-11)
(-88.3219999992 0 1.09176312926e-10)
(-88.3219999996 0 -3.65617174696e-10)
(-88.3220000011 0 4.52100988586e-10)
(-88.3220000001 0 5.76466766344e-10)
(-88.3219999992 0 -6.73919947989e-11)
(-88.3220000018 0 -3.42022536264e-10)
(-88.3220000006 0 8.27716144294e-11)
(-88.3219999996 0 1.22768764379e-10)
(-88.3220000002 0 1.01531027782e-10)
(-88.3219999991 0 -9.13323838046e-11)
(-88.3220000002 0 -6.72871872704e-12)
(-88.3220000001 0 -4.93270475299e-11)
(-88.3219999999 0 6.81530569945e-12)
(-88.3220000002 0 3.79701710634e-11)
(-88.3219999997 0 3.36614868347e-11)
(-88.322 0 -1.50571828816e-11)
(-88.322 0 8.57873352089e-12)
(-88.322 0 6.87983633322e-12)
(-88.322 0 6.24107797257e-12)
(-88.322 0 1.27563494358e-11)
(-88.3220000001 0 -5.42720902264e-11)
(-88.3219999999 0 2.41509541021e-10)
(-88.3220000001 0 -1.62129776513e-10)
(-88.3220000001 0 -6.88390820027e-11)
(-88.3219999997 0 -1.11432606785e-11)
(-88.3220000002 0 4.15999552517e-11)
(-88.322 0 2.39327738597e-10)
(-88.3219999999 0 -4.04741548819e-10)
(-88.3220000011 0 -4.11458805739e-10)
(-88.3220000002 0 2.91317752088e-10)
(-88.3219999994 0 2.86886766846e-10)
(-88.3220000006 0 3.5273810976e-11)
(-88.3219999985 0 3.55810247454e-10)
(-88.3219999981 0 -7.64461141412e-11)
(-88.3220000002 0 3.89752276275e-10)
(-88.3220000006 0 -2.67132826923e-10)
(-88.3220000008 0 -7.51837877405e-11)
(-88.3220000008 0 -2.25060092654e-10)
(-88.3220000003 0 4.17972149917e-10)
(-88.3219999992 0 2.18840863545e-11)
(-88.3219999986 0 -2.05951549028e-10)
(-88.3220000011 0 3.63643499218e-11)
(-88.3220000003 0 2.12462472079e-11)
(-88.3219999989 0 3.96549001787e-11)
(-88.3220000017 0 -6.80686736328e-11)
(-88.3220000007 0 5.26065452e-11)
(-88.3219999992 0 -1.36533170684e-10)
(-88.3220000001 0 -1.60491425224e-10)
(-88.3219999999 0 3.95662801615e-10)
(-88.3219999998 0 -3.73886382712e-10)
(-88.322000001 0 -3.5812193391e-10)
(-88.3219999993 0 -6.13856100834e-11)
(-88.3219999985 0 -1.17000627546e-10)
(-88.322 0 -8.10900365571e-12)
(-88.3220000007 0 -1.85057059984e-10)
(-88.3220000017 0 -9.66384140672e-11)
(-88.3220000001 0 2.23064024075e-11)
(-88.3219999984 0 -1.5843878061e-12)
(-88.3219999987 0 2.12396203793e-12)
(-88.322000001 0 -2.00826044446e-11)
(-88.3220000017 0 -7.34999574205e-13)
(-88.322 0 3.14506557275e-11)
(-88.321999999 0 -6.87064379739e-11)
(-88.3219999991 0 4.14753252e-11)
(-88.3220000006 0 -2.65156020904e-10)
(-88.3219999997 0 -3.02558657594e-10)
(-88.3219999991 0 -5.0796866063e-10)
(-88.3220000007 0 2.30270041575e-10)
(-88.3220000016 0 -3.96020893784e-10)
(-88.3220000001 0 -3.50603298003e-10)
(-88.3219999991 0 7.29484871625e-10)
(-88.3219999999 0 1.82688039373e-10)
(-88.3220000003 0 -1.22970033586e-10)
(-88.3220000003 0 -3.7305862645e-10)
(-88.3219999998 0 -1.38090505612e-10)
(-88.3219999999 0 5.68116718302e-10)
(-88.322 0 -1.21558388111e-10)
(-88.322 0 -1.00132471016e-10)
(-88.322 0 3.40126197373e-11)
(-88.322 0 6.62971941963e-11)
(-88.322 0 -1.43444308942e-10)
(-88.322 0 4.68079104833e-11)
(-88.322 0 2.91665484209e-11)
(-88.3220000001 0 5.77600580993e-12)
(-88.3219999997 0 -6.98463125281e-12)
(-88.322 0 -2.08519711828e-11)
(-88.3220000003 0 2.41496566637e-11)
(-88.322 0 -2.46021011832e-11)
(-88.3219999999 0 8.74681392452e-11)
(-88.3220000001 0 -3.31838145986e-11)
(-88.3220000002 0 6.63913446189e-11)
(-88.3219999999 0 -7.22975484582e-11)
(-88.322 0 4.51161673385e-11)
(-88.3220000001 0 3.2235125833e-10)
(-88.3219999999 0 4.9008336189e-11)
(-88.3219999999 0 7.69663935346e-11)
(-88.3220000001 0 4.53509355321e-10)
(-88.3219999999 0 -4.64492386704e-10)
(-88.3219999998 0 -3.8996386488e-10)
(-88.3219999998 0 7.48173841602e-11)
(-88.3220000001 0 2.14816874185e-10)
(-88.3220000004 0 -9.36570108294e-11)
(-88.322 0 7.64769026382e-11)
(-88.3220000003 0 1.70404346909e-10)
(-88.3219999999 0 -3.20848595702e-10)
(-88.3219999999 0 -5.68858819603e-10)
(-88.322 0 2.02002665169e-10)
(-88.3220000001 0 -4.27335493881e-10)
(-88.3219999999 0 -3.47440150684e-10)
(-88.3220000001 0 3.69466494377e-10)
(-88.3220000004 0 -1.14679221169e-11)
(-88.3219999987 0 -1.10653446828e-10)
(-88.3220000007 0 5.72889734543e-11)
(-88.3220000018 0 -1.37672942768e-10)
(-88.3219999993 0 -1.02321171826e-10)
(-88.3219999993 0 3.21267671499e-10)
(-88.3219999997 0 -4.65917032909e-10)
(-88.3219999999 0 -3.44624685803e-10)
(-88.3219999999 0 -4.38859411933e-10)
(-88.3219999999 0 -2.32354704741e-11)
(-88.3220000001 0 3.96694018556e-10)
(-88.322 0 2.90374664524e-11)
(-88.322 0 -3.57857234135e-10)
(-88.3219999999 0 -6.10070353797e-10)
(-88.3220000002 0 1.6205328697e-10)
(-88.322 0 2.0662916119e-10)
(-88.3219999998 0 1.84350931203e-10)
(-88.3220000002 0 -2.64454080103e-10)
(-88.3219999999 0 -2.62943544358e-10)
(-88.3220000001 0 4.12320984682e-11)
(-88.322 0 -4.36787934862e-10)
(-88.322 0 -3.9523287036e-10)
(-88.3220000002 0 -1.0420175131e-10)
(-88.3219999995 0 3.90159351948e-10)
(-88.3219999997 0 -6.33510240202e-11)
(-88.3220000013 0 -6.93181415754e-11)
(-88.3220000014 0 -9.92291887427e-11)
(-88.3219999991 0 -4.24190232501e-11)
(-88.3219999982 0 1.8354412077e-10)
(-88.322 0 -3.24578212333e-11)
(-88.3220000012 0 5.44788824331e-11)
(-88.322 0 -2.65093009904e-11)
(-88.3219999994 0 -1.47473799848e-11)
(-88.3220000003 0 3.20948725392e-11)
(-88.322 0 -6.19899934689e-13)
(-88.3219999997 0 -1.00344992008e-11)
(-88.3220000001 0 -3.13564695488e-11)
(-88.322 0 -2.30083640038e-11)
(-88.3220000001 0 3.77221484977e-11)
(-88.3219999999 0 -1.56869728596e-10)
(-88.3220000001 0 3.29517669174e-11)
(-88.322 0 8.30965572132e-11)
(-88.3219999997 0 -1.22781105974e-10)
(-88.3220000001 0 -1.15416355101e-10)
(-88.322 0 7.45738636637e-11)
(-88.3219999999 0 5.00713097407e-10)
(-88.3220000004 0 5.10018762892e-10)
(-88.3220000002 0 -2.92577866691e-10)
(-88.3219999999 0 -3.03321193036e-10)
(-88.3219999999 0 -1.71453187938e-10)
(-88.3219999997 0 -4.19847736753e-10)
(-88.3219999998 0 1.45783306191e-10)
(-88.3219999992 0 -3.86270256618e-10)
(-88.3219999994 0 3.41554475738e-10)
(-88.3220000011 0 -1.36472301568e-10)
(-88.3220000004 0 1.1908776621e-10)
(-88.3220000002 0 -2.40807986628e-10)
(-88.3220000001 0 -9.57622925988e-12)
(-88.322 0 -3.92002736903e-11)
(-88.322 0 -9.65952761202e-12)
(-88.322 0 -6.4795362521e-11)
(-88.322 0 6.93440323794e-11)
(-88.322 0 3.21269483017e-11)
(-88.322 0 -7.95438000395e-11)
(-88.3220000001 0 1.3087137588e-10)
(-88.322 0 1.47884272163e-10)
(-88.322 0 -4.44344748593e-10)
(-88.322 0 5.18105511856e-10)
(-88.322 0 5.29803150545e-10)
(-88.322 0 9.20287633089e-11)
(-88.322 0 1.17367951846e-10)
(-88.322 0 -1.54999427673e-11)
(-88.322 0 6.79279994427e-11)
(-88.322 0 -1.29772776286e-11)
(-88.322 0 6.16296717193e-12)
(-88.322 0 2.78926177542e-12)
(-88.322 0 -2.02384089228e-11)
(-88.322 0 1.67315748142e-11)
(-88.322 0 -1.94373595511e-12)
(-88.322 0 1.08784118094e-10)
(-88.322 0 -4.17628400022e-11)
(-88.322 0 -4.06972705764e-11)
(-88.322 0 5.12193787275e-11)
(-88.322 0 -2.50267112723e-11)
(-88.322 0 2.59825756191e-11)
(-88.322 0 -1.44538851912e-10)
(-88.322 0 3.91709771178e-11)
(-88.322 0 -5.50519833724e-11)
(-88.322 0 -6.36825544882e-11)
(-88.322 0 2.13193109409e-10)
(-88.3220000002 0 -9.96729905421e-11)
(-88.3219999999 0 1.32282066478e-10)
(-88.3219999998 0 -1.54460279126e-10)
(-88.3220000001 0 -6.96263340175e-10)
(-88.322 0 1.38914046512e-10)
(-88.322 0 2.76308482286e-10)
(-88.322 0 -9.43864684315e-12)
(-88.322 0 -6.5942832706e-11)
(-88.322 0 1.50546682868e-10)
(-88.322 0 -6.98516702975e-11)
(-88.322 0 -2.51346319337e-11)
(-88.322 0 -1.81020349075e-11)
(-88.322 0 -4.72421964554e-11)
(-88.322 0 1.08515606906e-10)
(-88.3219999999 0 -1.03574292913e-11)
(-88.3220000002 0 1.59480441343e-10)
(-88.3220000002 0 -4.10735024735e-11)
(-88.3219999997 0 -5.69935376407e-11)
(-88.321999999 0 -1.28265480137e-10)
(-88.321999999 0 6.84263729552e-11)
(-88.3220000017 0 1.10690325481e-10)
(-88.3220000018 0 -2.42076858787e-10)
(-88.3219999995 0 -9.86908639047e-11)
(-88.3220000001 0 -7.51400173808e-11)
(-88.3219999995 0 -8.76183567386e-11)
(-88.3219999998 0 3.58987218458e-11)
(-88.3219999994 0 5.89394344875e-11)
(-88.3219999993 0 -9.50788497832e-10)
(-88.3220000005 0 -7.42575424674e-10)
(-88.322 0 -2.23994068793e-10)
(-88.3219999997 0 9.40661418771e-11)
(-88.322 0 1.15489216341e-10)
(-88.3219999999 0 -1.32861411562e-10)
(-88.322 0 -4.24594941699e-11)
(-88.3219999998 0 5.17355594366e-11)
(-88.3219999999 0 4.79302227702e-11)
(-88.3220000002 0 -9.96766629763e-11)
(-88.322 0 -1.11418023471e-10)
(-88.322 0 -3.45792571028e-11)
(-88.322 0 -4.85275123349e-11)
(-88.322 0 -4.53878395537e-12)
(-88.3219999999 0 -1.70681042669e-11)
(-88.3220000001 0 -4.80283315814e-12)
(-88.3220000001 0 -2.0590501124e-11)
(-88.3219999999 0 -2.65205431789e-11)
(-88.322 0 -3.31833906066e-11)
(-88.322 0 -2.63127418033e-11)
(-88.322 0 -8.45247317924e-12)
(-88.322 0 4.05301533385e-11)
(-88.322 0 -1.58377203713e-10)
(-88.3219999999 0 -6.31340564743e-11)
(-88.3219999999 0 4.18984788678e-10)
(-88.322 0 3.04974788656e-10)
(-88.3220000001 0 -4.31678812785e-10)
(-88.3220000001 0 -3.37179463004e-10)
(-88.322 0 -1.19498297101e-10)
(-88.3219999999 0 5.43893214941e-11)
(-88.3220000001 0 -1.39386599133e-10)
(-88.3220000002 0 1.00902927468e-10)
(-88.322 0 -1.39648646558e-10)
(-88.3220000001 0 -3.91572302992e-10)
(-88.3219999998 0 -2.90998947028e-10)
(-88.3219999992 0 1.77354671595e-10)
(-88.3220000013 0 -3.86910132731e-10)
(-88.3220000015 0 -4.32698252888e-10)
(-88.3219999992 0 -3.96924212565e-10)
(-88.3219999999 0 4.19293776337e-10)
(-88.3219999995 0 3.26898273528e-10)
(-88.3219999992 0 -3.55366358711e-10)
(-88.3220000002 0 -2.43288516535e-10)
(-88.322 0 4.73074572758e-10)
(-88.322 0 9.82933063165e-11)
(-88.322 0 -3.04810909697e-10)
(-88.322 0 -5.02818001256e-10)
(-88.322 0 2.40099282411e-10)
(-88.3220000001 0 -2.32097827272e-10)
(-88.3219999999 0 -5.71808353393e-11)
(-88.3219999998 0 -4.88815404561e-10)
(-88.322 0 4.21715511602e-10)
(-88.3220000001 0 -9.55980998336e-11)
(-88.322 0 5.45954706556e-11)
(-88.3220000004 0 2.09257704188e-10)
(-88.3219999998 0 -3.49638205384e-10)
(-88.3219999994 0 -8.31089209105e-10)
(-88.322000001 0 -9.71731356788e-10)
(-88.3220000006 0 -3.46166495151e-10)
(-88.3219999996 0 8.87477373763e-10)
(-88.3219999998 0 5.26116312323e-10)
(-88.3219999994 0 -7.13029094434e-11)
(-88.3219999995 0 -5.99835232386e-10)
(-88.3220000012 0 6.43279532362e-10)
(-88.3220000009 0 -2.27997695955e-11)
(-88.3219999996 0 -1.60519549467e-10)
(-88.3219999996 0 -1.5338616627e-11)
(-88.322 0 1.02823628226e-10)
(-88.3220000005 0 5.88148289007e-11)
(-88.3220000003 0 1.8055994553e-10)
(-88.3219999997 0 -1.98161787786e-10)
(-88.3219999999 0 1.42682451267e-10)
(-88.3220000003 0 -2.32109141348e-10)
(-88.3220000002 0 1.69123537522e-10)
(-88.3219999999 0 2.03852757214e-10)
(-88.322 0 -1.81777129195e-10)
(-88.3219999999 0 -3.81052647427e-10)
(-88.322 0 -1.43345682137e-10)
(-88.322 0 -4.25842691185e-10)
(-88.322 0 -4.25908829432e-10)
(-88.322 0 -1.77774185499e-10)
(-88.322 0 7.51290452451e-11)
(-88.322 0 3.12167535279e-11)
(-88.322 0 8.24783486361e-11)
(-88.3219999999 0 -2.9903914842e-10)
(-88.3220000003 0 -6.25632735088e-10)
(-88.3220000002 0 2.88975362714e-10)
(-88.3219999988 0 2.99566660895e-10)
(-88.3219999993 0 6.95726223705e-10)
(-88.3220000018 0 -4.1008188593e-10)
(-88.3220000012 0 -3.59750457542e-10)
(-88.3219999994 0 2.70034847537e-10)
(-88.3219999993 0 2.55576848165e-10)
(-88.322 0 2.5704574245e-10)
(-88.322 0 1.02425021749e-10)
(-88.3220000001 0 2.5623004465e-10)
(-88.3220000009 0 9.8304275347e-11)
(-88.3220000002 0 1.72762472073e-11)
(-88.3219999988 0 8.39038706773e-11)
(-88.3220000002 0 -1.14605679905e-10)
(-88.3220000012 0 -3.70194981543e-10)
(-88.3220000003 0 4.77747895815e-10)
(-88.3219999981 0 6.81173391721e-10)
(-88.3219999982 0 4.16472835785e-10)
(-88.3220000015 0 6.69546882265e-10)
(-88.3220000011 0 -4.08923815379e-10)
(-88.3219999984 0 -1.86694076253e-11)
(-88.3219999993 0 1.08122882884e-11)
(-88.3220000016 0 -4.78034965642e-11)
(-88.3220000012 0 4.90384802752e-11)
(-88.3219999989 0 -7.10995213116e-11)
(-88.3219999995 0 3.1663492691e-11)
(-88.3220000005 0 -9.91674282661e-11)
(-88.3220000005 0 -2.50474308597e-10)
(-88.321999999 0 2.0604769483e-10)
(-88.3219999991 0 2.81267749512e-10)
(-88.322000001 0 3.63457907273e-10)
(-88.3219999996 0 -3.16732618034e-10)
(-88.3220000004 0 -3.27387375013e-10)
(-88.322000001 0 5.62378803843e-10)
(-88.3220000002 0 6.32742260331e-11)
(-88.3220000007 0 1.00239588388e-10)
(-88.3219999982 0 3.32363818246e-10)
(-88.3219999978 0 5.03914358282e-10)
(-88.322000002 0 5.65758719415e-10)
(-88.3220000016 0 -1.99791348438e-10)
(-88.3219999983 0 -2.98988579601e-10)
(-88.3219999982 0 -1.83236416568e-10)
(-88.3220000009 0 4.07205621095e-10)
(-88.3220000005 0 3.44860209636e-10)
(-88.3219999995 0 2.6523228809e-10)
(-88.322 0 -1.51994323646e-10)
(-88.3219999999 0 -1.91444257519e-10)
(-88.3220000003 0 1.07736444314e-10)
(-88.322 0 -2.3251757566e-11)
(-88.3219999999 0 -4.45984081857e-11)
(-88.3219999999 0 -8.50848142179e-11)
(-88.3219999993 0 8.90284867197e-11)
(-88.3220000007 0 7.39176498336e-11)
(-88.3220000012 0 2.92650565712e-11)
(-88.3219999999 0 -2.64464727234e-11)
(-88.322 0 -2.31410866018e-10)
(-88.3220000004 0 -3.32319880397e-11)
(-88.3219999997 0 -6.7756581781e-11)
(-88.3219999991 0 -8.17486228045e-11)
(-88.3219999995 0 5.76563218424e-11)
(-88.322 0 -7.85377425022e-11)
(-88.3220000006 0 -1.15684893481e-11)
(-88.3220000015 0 5.37140728097e-12)
(-88.3219999989 0 -6.36683077516e-11)
(-88.3219999981 0 1.75741405468e-10)
(-88.3219999991 0 1.14646422475e-11)
(-88.3220000014 0 -3.05911778298e-10)
(-88.3220000021 0 -2.11055992044e-10)
(-88.3219999988 0 3.09375975516e-10)
(-88.3219999988 0 4.16885325309e-10)
(-88.322 0 1.25167629102e-10)
(-88.3220000001 0 -4.22518928404e-11)
(-88.3220000001 0 1.43776632536e-10)
(-88.3220000002 0 -7.37837829462e-11)
(-88.3220000004 0 1.4963099624e-10)
(-88.3220000001 0 3.91792832222e-10)
(-88.322 0 2.91811568672e-10)
(-88.3219999999 0 -1.80191007782e-10)
(-88.3220000002 0 4.65146103723e-10)
(-88.3219999996 0 2.89295890371e-10)
(-88.3219999992 0 5.62496832094e-10)
(-88.322 0 -4.6796329167e-10)
(-88.3220000011 0 -3.21526246537e-10)
(-88.3220000005 0 4.8650600273e-10)
(-88.3219999994 0 2.25632652552e-10)
(-88.322 0 -4.7160532684e-10)
(-88.322 0 -9.14536463843e-11)
(-88.3220000001 0 2.92693877734e-10)
(-88.322 0 5.19148150236e-10)
(-88.322 0 -3.56200529899e-10)
(-88.3220000007 0 2.13937819398e-10)
(-88.3219999994 0 2.90866041734e-11)
(-88.3219999987 0 4.9118101658e-10)
(-88.3219999997 0 -4.42719479614e-10)
(-88.3220000014 0 2.28270427491e-11)
(-88.3220000015 0 1.13200785652e-10)
(-88.3219999986 0 -4.43318551621e-10)
(-88.3219999991 0 1.03778513879e-10)
(-88.3220000003 0 6.76756991204e-10)
(-88.3220000004 0 6.3925697447e-10)
(-88.3219999999 0 3.72094648479e-10)
(-88.3219999992 0 -4.03202613979e-10)
(-88.3220000011 0 -5.43531450998e-10)
(-88.322000001 0 4.61742240409e-10)
(-88.3219999996 0 4.12352881663e-10)
(-88.3219999998 0 -3.25478292365e-10)
(-88.322 0 -4.59916238282e-10)
(-88.3219999999 0 1.13989923537e-10)
(-88.322 0 -1.57318326123e-10)
(-88.322 0 -2.74197470632e-11)
(-88.322 0 9.0765463025e-11)
(-88.322 0 -1.53033057447e-10)
(-88.322 0 1.74797345058e-10)
(-88.322 0 -7.51948928325e-11)
(-88.322 0 1.46671939848e-10)
(-88.322 0 -1.8290417352e-10)
(-88.322 0 -1.0655793407e-10)
(-88.3220000001 0 -1.64937602009e-10)
(-88.3220000004 0 1.16723820849e-11)
(-88.322 0 2.9647686665e-10)
(-88.3219999997 0 1.58668649522e-10)
(-88.3220000001 0 -1.12244949721e-10)
(-88.3219999998 0 -2.38558386255e-10)
(-88.322 0 1.00561192962e-10)
(-88.3220000001 0 1.37262354339e-10)
(-88.3219999998 0 -1.69486106919e-10)
(-88.322 0 3.25241937486e-10)
(-88.322 0 6.19464784175e-10)
(-88.3220000001 0 -2.73722479262e-10)
(-88.3219999998 0 -3.10010184571e-10)
(-88.3219999998 0 -7.13907026949e-10)
(-88.3220000004 0 3.39701885942e-10)
(-88.322 0 3.3209128732e-10)
(-88.3219999998 0 -2.87053908172e-10)
(-88.3220000001 0 -2.57179835541e-10)
(-88.322 0 -2.82292666981e-10)
(-88.322 0 -1.79933278752e-10)
(-88.322 0 -1.91759734627e-10)
(-88.322 0 -9.48157886344e-11)
(-88.322 0 8.63499176444e-11)
(-88.322 0 1.06261880617e-10)
(-88.3219999998 0 -1.3618105317e-10)
(-88.3220000002 0 2.84030701949e-10)
(-88.3220000002 0 -2.85154596818e-10)
(-88.3219999997 0 -5.60438151192e-10)
(-88.322 0 -4.59051099676e-10)
(-88.3219999998 0 -8.52321078033e-11)
(-88.3220000001 0 -1.00178037178e-10)
(-88.3220000004 0 -4.17256993223e-10)
(-88.3219999999 0 2.26395969357e-10)
(-88.322 0 3.04746404564e-10)
(-88.322 0 -3.48403259404e-10)
(-88.3220000002 0 3.3083687732e-11)
(-88.3220000001 0 -4.66743482755e-10)
(-88.3219999998 0 -4.14517866017e-10)
(-88.322 0 8.2115482275e-11)
(-88.3219999999 0 -6.67304755537e-10)
(-88.322 0 -3.92342263658e-10)
(-88.3219999999 0 -4.06992423276e-10)
(-88.3220000005 0 2.11841276832e-10)
(-88.3220000005 0 2.89087255219e-10)
(-88.3219999988 0 -4.72860778284e-10)
(-88.3219999992 0 -7.67627995229e-11)
(-88.3220000013 0 -4.2196490165e-10)
(-88.3220000003 0 2.5426396706e-10)
(-88.3219999997 0 -4.17838793433e-10)
(-88.3220000003 0 -7.90231887826e-10)
(-88.3219999998 0 -2.09856374974e-10)
(-88.3219999999 0 6.20599719212e-11)
(-88.322 0 2.58850108277e-10)
(-88.322 0 3.33994459015e-11)
(-88.322 0 -3.31327975125e-13)