/*--------------------------------*- C++ -*----------------------------------*\
  =========                 |
  \\      /  F ield         | OpenFOAM: The Open Source CFD Toolbox
   \\    /   O peration     | Website:  https://openfoam.org
    \\  /    A nd           | Version:  6
     \\/     M anipulation  |
\*---------------------------------------------------------------------------*/
FoamFile
{
    version     2.0;
    format      ascii;
    class       volScalarField;
    location    "2.6e-05";
    object      p;
}
// * * * * * * * * * * * * * * * * * * * * * * * * * * * * * * * * * * * * * //

dimensions      [1 -1 -2 0 0 0 0];

internalField   nonuniform List<scalar> 
8192
(
6000000.00328
6000000.00007
6000000.00051
6000000.00042
6000000.00047
5999999.99977
6000000.00001
5999999.99997
6000000.00001
6000000
6000000.00001
6000000.00002
6000000.00019
6000000.0001
6000000.00004
6000000
6000000.00001
5999999.9999
5999999.99995
6000000.00005
5999999.99997
5999999.99995
5999999.9999
6000000
5999999.99995
6000000
5999999.9999
5999999.99982
5999999.99958
6000000.00022
5999999.99951
5999999.99957
5999999.99991
5999999.99701
6000000.00203
6000000.00298
5999999.99968
6000000.00314
5999999.99839
5999999.99966
5999999.99995
6000000
6000000
6000000.00002
6000000.00017
6000000.00005
6000000
6000000
5999999.99996
6000000.00001
6000000.00002
5999999.9998
6000000.00043
5999999.99933
5999999.99923
6000000.0017
6000000.00057
6000000.00068
6000000.00003
6000000.00088
5999999.99865
5999999.99696
5999999.99716
5999999.99893
6000000
6000000
6000000.00002
6000000.0002
5999999.99996
6000000.00009
5999999.99999
6000000.00007
6000000.00058
6000000.0037
6000000.0026
5999999.998
5999999.99572
6000000.00226
6000000.00453
5999999.99795
6000000.00002
5999999.99705
6000000.00342
6000000.00225
5999999.9977
5999999.99738
6000000.00183
6000000.00257
5999999.99938
5999999.99942
5999999.99976
5999999.99999
5999999.99996
6000000.00007
5999999.99987
6000000.00002
6000000.00007
6000000
6000000.00007
6000000
6000000
6000000
5999999.99999
6000000
5999999.99987
6000000.00002
6000000.00007
6000000
6000000
6000000
6000000
6000000
6000000
6000000.00007
6000000
6000000.00011
6000000.00001
5999999.99987
6000000
6000000
5999999.99989
5999999.99996
6000000
5999999.99999
6000000.00002
6000000.00001
6000000.00002
6000000.00002
6000000.00221
6000000.00033
6000000.0003
6000000.00034
6000000.00011
5999999.99995
6000000.00001
5999999.99997
6000000.00001
6000000.00009
6000000
6000000.00019
6000000.00019
6000000.00027
6000000.00117
5999999.9995
6000000.00006
5999999.99921
6000000.00078
6000000.00069
5999999.99988
5999999.99908
5999999.99896
6000000.00087
5999999.99748
6000000.00196
5999999.99796
5999999.99809
5999999.99894
5999999.99953
5999999.99938
6000000.00004
6000000
5999999.99996
6000000.00025
6000000.00017
5999999.99986
6000000.00138
6000000.00007
6000000
5999999.99995
5999999.99998
6000000.00026
5999999.99989
6000000.00266
6000000.00129
6000000.00127
6000000.00097
6000000.00152
6000000.00091
5999999.99779
5999999.9998
6000000.00025
5999999.999
6000000.00095
5999999.99775
6000000.00126
6000000.00265
6000000.00359
5999999.9979
5999999.9974
6000000.00361
6000000.00288
6000000.00116
5999999.99996
5999999.99997
6000000.00007
6000000
5999999.99994
6000000
5999999.99999
6000000
6000000.00009
6000000
6000000.00001
5999999.99994
5999999.99988
6000000.00007
6000000.00001
6000000
6000000
5999999.99997
6000000
6000000.00006
6000000
5999999.99994
5999999.99997
6000000
5999999.99995
6000000
5999999.99996
6000000.00019
5999999.99887
6000000.00072
5999999.99892
6000000.00033
6000000.00178
5999999.99806
5999999.99758
6000000.00086
6000000.00302
5999999.99666
5999999.99641
6000000.00333
6000000.00189
5999999.99993
6000000.00122
6000000.00049
6000000.00116
5999999.99957
6000000.00214
6000000.00421
5999999.99801
6000000.00028
6000000.00103
5999999.99905
6000000.0025
5999999.9975
6000000.00043
6000000.00176
6000000.00127
6000000.00108
6000000.00077
6000000.0008
6000000.00092
5999999.99959
5999999.99999
5999999.99996
5999999.9994
5999999.99982
6000000
5999999.99987
6000000.00011
5999999.99995
6000000.00001
5999999.9999
6000000.00001
5999999.99994
6000000.00001
6000000.00009
6000000.00009
5999999.99994
6000000.00001
6000000.00006
6000000
6000000
6000000.0002
5999999.99893
6000000.00186
6000000.00333
5999999.99754
5999999.99853
5999999.9987
5999999.99882
5999999.99927
5999999.99878
5999999.99994
6000000.00005
5999999.99947
6000000.00039
6000000.00023
6000000.00001
6000000.00001
5999999.99996
6000000.00007
6000000.00001
6000000.00001
5999999.9999
6000000
6000000.00004
6000000
6000000
6000000
6000000.00001
6000000.00001
6000000.00007
5999999.9997
5999999.99972
6000000.00024
5999999.99871
6000000.00148
5999999.99695
5999999.99777
6000000.00313
6000000.00134
5999999.99985
6000000.00178
5999999.99966
6000000.00196
5999999.99735
5999999.99896
5999999.99875
6000000.00137
6000000.00043
5999999.99993
5999999.99999
6000000
6000000
6000000.00001
5999999.99987
6000000.00001
6000000
5999999.99996
6000000.00019
6000000.00019
6000000.0001
6000000.00002
6000000
5999999.99995
5999999.99995
6000000.00001
6000000
6000000
5999999.99995
5999999.99993
6000000.00014
5999999.99979
6000000.00016
5999999.99928
5999999.99867
5999999.9971
6000000.00099
5999999.99748
5999999.99842
6000000.00217
6000000.00037
6000000.00143
6000000.00155
5999999.99903
6000000.0005
5999999.99979
6000000.00045
6000000.00026
5999999.99997
6000000.00017
6000000.00001
6000000.00017
6000000
6000000.00007
6000000.00017
5999999.99996
6000000.00013
6000000.00011
5999999.99963
6000000.00076
5999999.99951
6000000.00032
6000000.00386
6000000.0016
6000000.00008
6000000.00445
5999999.99656
5999999.9984
5999999.99766
5999999.99919
5999999.99941
5999999.99962
6000000.00063
5999999.99875
5999999.99654
6000000.00283
5999999.99697
5999999.99683
6000000.0011
6000000.00045
5999999.99943
6000000.0001
5999999.99983
5999999.99905
6000000.00126
5999999.9976
5999999.99766
5999999.99827
5999999.99927
6000000.00157
6000000.00028
5999999.99763
5999999.99715
6000000.00068
6000000.00196
6000000.00039
5999999.99727
5999999.99884
6000000.00003
5999999.99834
5999999.99886
5999999.99875
6000000.00355
5999999.99951
5999999.9997
5999999.99953
5999999.99994
6000000.00015
5999999.99997
6000000.00001
5999999.99987
5999999.99996
6000000.00011
6000000
6000000
6000000.00001
6000000.00001
6000000.00002
5999999.99987
6000000.00001
6000000
6000000
5999999.99992
5999999.99976
6000000
5999999.99987
6000000
6000000.00003
5999999.99995
6000000
6000000.00001
6000000
5999999.99994
5999999.99979
5999999.9999
5999999.99972
5999999.99997
6000000.00009
6000000
6000000
6000000
6000000.00009
5999999.99994
6000000.00009
6000000.00137
5999999.99732
6000000.00382
6000000.00396
6000000.00054
6000000.00073
6000000.00053
6000000.00003
6000000
6000000
6000000.00001
6000000
6000000
5999999.99995
5999999.99998
6000000.00013
5999999.99992
6000000.00001
5999999.99995
5999999.99997
6000000.00018
5999999.99971
6000000.00087
5999999.99779
5999999.99929
6000000.00361
6000000.00243
6000000.00055
5999999.99725
6000000.0001
6000000.00247
5999999.99998
5999999.99994
6000000.00017
5999999.99997
6000000
6000000.00001
6000000.00007
6000000.00017
5999999.99995
6000000.00013
5999999.99997
5999999.99996
6000000.00017
6000000.00001
6000000.00029
6000000.0003
6000000.00051
6000000.00016
6000000.00037
5999999.99955
5999999.99953
5999999.99682
5999999.9985
6000000.00019
5999999.99931
5999999.99958
5999999.99998
5999999.99981
6000000.00001
5999999.99994
6000000.00001
5999999.9999
6000000.00001
6000000
6000000.00001
6000000
5999999.99986
6000000.00009
6000000
5999999.99996
5999999.99995
5999999.99995
6000000
6000000
5999999.99994
5999999.99995
5999999.99992
6000000.00001
5999999.99995
5999999.99994
5999999.99995
5999999.99994
6000000
6000000
5999999.99995
6000000
6000000
6000000.00001
5999999.99996
6000000.00007
5999999.99987
6000000.00001
5999999.99995
6000000
6000000.00001
6000000
6000000
6000000.00001
6000000.00017
6000000.00005
6000000
6000000
5999999.99996
5999999.99992
6000000.00016
5999999.99968
6000000.00002
5999999.99702
5999999.99769
6000000.00335
6000000.00154
5999999.99989
6000000.00289
5999999.99905
6000000.0025
5999999.99716
5999999.99975
5999999.99967
6000000.0007
6000000.00045
6000000.00031
6000000.00006
6000000
5999999.99994
6000000.00001
6000000
6000000.00001
6000000.00009
6000000.00001
6000000.00002
5999999.99982
6000000.00016
6000000.00001
6000000
6000000.00001
5999999.99994
6000000
6000000
6000000
5999999.99995
5999999.99992
5999999.99998
5999999.99995
6000000
5999999.99995
5999999.9999
5999999.99996
6000000.00015
5999999.9993
6000000.00033
5999999.99974
5999999.99689
6000000.00218
6000000.00226
6000000.00055
6000000.00246
5999999.99912
6000000.00004
6000000.00006
6000000.00001
6000000
6000000.00002
6000000.00017
6000000
6000000.00004
6000000.00004
5999999.99993
6000000.00001
6000000.00001
5999999.99999
6000000.00057
5999999.99952
5999999.99977
6000000.00192
6000000.00158
6000000.00147
6000000.00055
5999999.99964
5999999.99855
6000000.00261
6000000.0016
6000000.00107
5999999.99951
5999999.99881
6000000.00012
5999999.99973
5999999.99992
5999999.9999
6000000.00013
6000000.00013
6000000.00009
6000000.00009
5999999.99995
6000000.00009
5999999.99995
6000000.00007
6000000.00013
6000000
6000000
6000000
5999999.99965
6000000.00045
6000000.00049
5999999.99817
5999999.99832
6000000.0024
6000000.00237
6000000.00071
5999999.99973
6000000.00086
5999999.99949
6000000.0009
6000000.00269
6000000.00172
5999999.99974
6000000.00219
6000000.00328
6000000.00256
5999999.99701
5999999.99769
6000000.00279
6000000.00275
5999999.99788
5999999.99942
6000000.00252
6000000.00269
5999999.9969
6000000.00197
5999999.99924
6000000.00407
5999999.99598
6000000.0007
5999999.99996
5999999.99918
6000000.0015
6000000.00092
6000000.00126
6000000.00391
5999999.99786
5999999.99746
6000000.00428
6000000.00166
5999999.99913
5999999.99747
6000000.00073
5999999.99924
6000000.00001
6000000
6000000
6000000.00033
5999999.9997
6000000.0006
5999999.99969
5999999.99964
6000000.00065
6000000.00181
6000000.0007
6000000.00177
6000000.00183
6000000.00168
5999999.99921
5999999.99975
5999999.99945
6000000.00108
6000000.00282
5999999.9984
5999999.99734
5999999.99646
6000000.0023
6000000.00106
5999999.99855
5999999.99904
5999999.99913
5999999.99945
5999999.99956
5999999.99974
5999999.99999
6000000.00002
6000000
6000000
6000000
5999999.9993
5999999.99888
5999999.99863
6000000.00075
5999999.99981
6000000
6000000.00002
5999999.99994
6000000.00014
6000000.00007
6000000.00014
6000000.00107
5999999.99896
5999999.99928
5999999.99828
6000000.00234
6000000.00221
5999999.99827
5999999.99974
5999999.99949
6000000.00001
5999999.99863
5999999.99868
6000000.00129
6000000.00033
6000000.00039
6000000.00004
5999999.99999
6000000.00002
6000000
6000000
6000000
5999999.99997
5999999.99994
5999999.99997
6000000.00009
6000000
6000000.00001
6000000.00007
6000000.00017
6000000.00007
6000000.00007
6000000.00009
6000000.00027
6000000.00014
6000000.00006
5999999.99992
6000000
6000000.00002
6000000
5999999.99995
5999999.99993
6000000.00004
5999999.99995
6000000
5999999.99995
5999999.99994
5999999.99995
6000000
5999999.99995
6000000
6000000
5999999.99995
6000000.00001
6000000.00006
5999999.99984
5999999.99984
5999999.99935
5999999.99991
6000000.00001
6000000.00001
6000000.00001
6000000.00002
6000000.00017
6000000.00002
6000000
6000000.00001
5999999.99996
6000000
5999999.99998
6000000.00059
6000000.00124
5999999.9976
5999999.99834
6000000.00383
5999999.99934
6000000.00026
6000000.00042
5999999.99991
6000000
5999999.9999
6000000
5999999.99995
6000000.00001
5999999.99985
6000000.00009
6000000
6000000
5999999.99997
6000000.00006
5999999.99998
6000000.00127
6000000.00255
6000000.00013
6000000.00162
6000000.00319
6000000.00277
5999999.9993
5999999.99971
6000000.00001
5999999.99997
6000000
6000000.00006
6000000
5999999.99994
5999999.99997
6000000.00001
5999999.99996
6000000
5999999.99996
5999999.99997
6000000
6000000.00004
5999999.9998
5999999.99937
6000000.00088
5999999.99863
6000000.0018
6000000.0014
6000000.00086
5999999.99746
6000000.00279
6000000.00266
5999999.99725
5999999.99857
6000000.00197
6000000.00017
6000000.00253
6000000.00263
6000000.00139
6000000.00195
6000000.00047
6000000.0003
6000000.00082
5999999.99973
6000000.00053
5999999.99962
6000000.00115
5999999.99836
6000000.00022
6000000.00317
6000000.00245
6000000.00022
5999999.99984
6000000
6000000.00001
6000000.00001
5999999.99927
6000000.0011
6000000.00028
6000000.00007
6000000
6000000
6000000.00001
6000000.00022
5999999.99945
6000000.0012
5999999.99716
6000000.00392
6000000.0036
5999999.99984
6000000.00033
6000000.00033
6000000.00009
6000000
6000000
6000000.00001
6000000
6000000
5999999.99995
6000000
5999999.99995
6000000
6000000.00001
5999999.99995
6000000.00011
6000000
5999999.99995
6000000
6000000
5999999.99995
6000000
6000000
6000000.00006
5999999.99981
5999999.99925
5999999.99999
6000000.00003
6000000
6000000.00001
6000000.00002
6000000.00017
6000000.00005
6000000
6000000.00001
5999999.99995
5999999.99989
6000000.00042
5999999.99869
6000000.00156
5999999.99727
5999999.99825
6000000.0035
6000000.00184
6000000.00153
6000000.00113
5999999.99985
5999999.99899
5999999.99884
5999999.99938
5999999.99952
5999999.99783
6000000.00016
6000000.00008
5999999.99981
6000000
5999999.99986
6000000.0001
5999999.99955
6000000.00102
5999999.99823
5999999.99701
6000000.00131
5999999.99888
5999999.99869
5999999.99959
5999999.99987
6000000.00016
6000000.00001
6000000.00001
6000000.00001
5999999.99998
6000000.00031
5999999.99982
6000000.00014
6000000.00006
6000000
5999999.99972
5999999.9995
5999999.99997
5999999.99978
5999999.99996
6000000
6000000.00001
6000000.00004
6000000.00013
6000000
6000000
6000000.00013
6000000
6000000.00001
6000000
6000000
6000000.00001
6000000.00004
6000000.00001
6000000
6000000.00007
6000000.00002
5999999.99987
6000000
6000000
6000000
6000000.00001
6000000
5999999.99996
5999999.99988
6000000.00089
5999999.99909
6000000.00155
5999999.99822
5999999.99793
6000000.00318
6000000.00137
5999999.99829
5999999.99991
5999999.99997
5999999.99998
6000000.0001
6000000
6000000.00013
5999999.99992
5999999.99995
6000000.00001
5999999.99993
6000000.00007
5999999.99993
6000000.00001
6000000.00138
5999999.9986
5999999.99892
5999999.99935
5999999.99964
6000000.00107
6000000.00125
5999999.9972
5999999.99741
6000000.00139
6000000.00287
5999999.99647
5999999.99724
6000000.0004
6000000.00095
5999999.99869
5999999.99953
5999999.99985
6000000.00012
6000000.00001
6000000
6000000.00001
6000000
6000000.00002
5999999.99995
5999999.99995
6000000
6000000.00001
6000000.00011
6000000.00001
6000000
5999999.99995
5999999.99995
6000000.00002
6000000
6000000
6000000.00001
6000000
5999999.99992
6000000
6000000.00001
6000000
5999999.99996
6000000.00003
6000000.00017
5999999.99997
6000000
6000000.00009
5999999.99935
6000000.00035
6000000.0001
6000000.00013
6000000.00032
6000000.00015
6000000
6000000
5999999.99995
6000000.00002
5999999.99979
6000000.00025
6000000.00287
6000000.00167
5999999.99778
5999999.99645
6000000.00159
6000000.00152
6000000.00098
6000000.00106
5999999.99969
5999999.99993
6000000
6000000
5999999.99995
5999999.99986
5999999.99999
5999999.99972
5999999.99998
5999999.99995
5999999.99994
6000000.00011
6000000.00012
5999999.9998
5999999.99988
6000000
5999999.99995
6000000.00006
6000000
6000000
5999999.99996
6000000
6000000
5999999.99987
6000000
6000000
6000000.00001
6000000.00006
6000000
6000000.00007
6000000
5999999.99996
5999999.99998
6000000.00031
5999999.9994
6000000.001
5999999.9985
5999999.99964
6000000.00339
6000000.00234
6000000.00178
6000000.00147
6000000.0006
5999999.99924
5999999.99933
5999999.99975
5999999.9997
5999999.99981
6000000.00342
5999999.99709
5999999.99796
5999999.99646
6000000.00129
6000000.0007
6000000.00067
6000000.00007
6000000.00013
6000000.00006
6000000.00017
6000000.00004
5999999.99986
6000000
6000000.00001
6000000
6000000.00001
6000000.00001
6000000.00017
5999999.99945
6000000.00113
5999999.99961
5999999.99987
5999999.99903
6000000.00068
5999999.99801
5999999.99829
6000000.00078
5999999.99674
5999999.99629
6000000.00297
6000000.00207
5999999.9986
6000000.00024
6000000.00004
5999999.99997
6000000.00017
6000000.00002
6000000
6000000
6000000
6000000
6000000
6000000
6000000.00001
6000000.00007
6000000.00013
6000000.00013
6000000.00001
6000000
6000000
6000000.00001
6000000.00023
5999999.99952
6000000.00102
6000000.00106
6000000.00019
6000000.00073
6000000.00025
6000000.00068
5999999.99974
6000000.00008
5999999.99965
6000000.00005
5999999.99988
6000000.00112
5999999.99999
5999999.99997
5999999.99995
5999999.99998
5999999.99995
6000000
5999999.99998
6000000.00004
6000000.0001
5999999.99993
6000000
5999999.99998
6000000.00004
6000000
6000000
6000000
5999999.99999
6000000.00015
6000000.0005
5999999.99917
6000000.00023
6000000.00014
6000000.00011
6000000
6000000
6000000
6000000
6000000.00001
5999999.99936
5999999.99991
6000000
6000000
6000000
5999999.99996
6000000
6000000
6000000
5999999.99997
6000000
6000000
6000000
5999999.99994
6000000
6000000.00003
6000000
6000000
6000000
6000000
6000000
6000000
6000000
6000000.0001
6000000
6000000.00006
6000000
6000000.00011
5999999.99953
6000000.00066
5999999.99879
5999999.99986
6000000.00027
6000000.00046
6000000.00101
5999999.99946
6000000.0001
5999999.99993
6000000
5999999.99996
5999999.99995
6000000.00008
5999999.99978
6000000
6000000.00001
6000000.00001
6000000.00014
6000000.00019
6000000.00018
5999999.99971
5999999.99946
6000000.00065
5999999.99823
6000000.00109
5999999.99786
6000000.00273
6000000.00362
5999999.99788
5999999.99978
5999999.99845
6000000.00073
5999999.99984
6000000.00135
5999999.99803
5999999.99652
6000000.00359
5999999.99836
5999999.99876
5999999.9993
5999999.99902
5999999.99974
5999999.99897
5999999.9967
5999999.99666
6000000.00246
5999999.99771
5999999.99764
5999999.99862
5999999.99825
5999999.99956
5999999.99797
6000000.001
6000000.00028
5999999.99992
6000000
6000000
5999999.99994
6000000.00001
6000000.00012
6000000
5999999.99997
5999999.99977
6000000.00043
5999999.99861
5999999.99608
6000000.00366
5999999.99815
5999999.9979
6000000.00269
5999999.9976
5999999.99645
6000000.00031
6000000.00002
6000000
6000000.00013
6000000.00001
6000000
6000000
6000000.00001
5999999.99991
6000000.00009
6000000.00001
6000000
6000000.00001
5999999.99994
6000000
6000000
5999999.99999
5999999.99978
5999999.99942
6000000.00007
5999999.99979
6000000.00001
5999999.99995
5999999.99993
5999999.99999
6000000.00012
5999999.99976
5999999.99991
6000000.00002
5999999.99978
6000000.00007
6000000
5999999.99996
6000000.00006
6000000.00001
6000000.00038
5999999.9996
5999999.99951
6000000.00002
6000000.00001
6000000.00006
6000000
5999999.99996
6000000.00013
6000000.00017
6000000.00002
5999999.99995
6000000
5999999.99995
6000000.00013
6000000.00001
6000000.00033
5999999.99996
6000000.00024
6000000.00028
6000000.00159
5999999.99772
5999999.99665
6000000.00385
6000000.00021
6000000.00038
6000000.00003
6000000.00006
6000000.0001
6000000.00001
6000000.0001
5999999.99997
5999999.99995
6000000
6000000.00001
6000000
6000000
5999999.99999
6000000
6000000.00001
6000000.00004
6000000
6000000
6000000
6000000
6000000.00004
6000000
6000000
6000000
6000000
6000000.00004
6000000
6000000
6000000.00004
6000000
6000000
5999999.99996
6000000
6000000
6000000
5999999.99996
5999999.99985
5999999.99997
6000000
6000000
6000000.0001
6000000
6000000
6000000
6000000
6000000
6000000.00003
6000000
6000000
6000000
6000000
6000000
6000000
6000000
6000000.0001
6000000
5999999.99995
6000000
5999999.99989
6000000.00006
6000000.00284
5999999.99649
5999999.99778
6000000.00104
6000000
6000000
6000000.00001
5999999.99995
6000000.00001
6000000
6000000.00009
6000000
6000000.00001
6000000.00001
5999999.99993
6000000.00009
6000000.00009
6000000.00009
6000000.00002
5999999.99995
6000000.00001
5999999.99994
6000000.00001
6000000
6000000
5999999.99995
5999999.99993
6000000.00011
5999999.99994
6000000.00014
5999999.99979
5999999.99993
6000000
6000000.00001
5999999.99993
6000000.00018
5999999.99967
5999999.99813
6000000.0017
5999999.9983
5999999.99684
6000000.00358
5999999.99887
5999999.99998
5999999.99972
6000000.00015
6000000.00005
5999999.99995
6000000.00009
5999999.99994
5999999.99997
6000000.00013
6000000.00009
6000000.00001
5999999.99995
6000000
6000000
5999999.99994
6000000.00001
6000000.00012
6000000
6000000.00008
5999999.99994
5999999.99996
5999999.99999
5999999.99991
6000000.00001
5999999.99995
5999999.99994
5999999.99999
5999999.99999
6000000
6000000.00014
6000000
5999999.99999
5999999.99997
5999999.99999
6000000
5999999.99995
5999999.99996
6000000.0001
5999999.99999
6000000
6000000.00006
5999999.99999
5999999.99999
6000000.00001
5999999.99999
6000000.00006
5999999.99996
5999999.99999
5999999.99986
5999999.99992
6000000.00006
5999999.99999
5999999.99999
5999999.99998
5999999.99999
5999999.99996
5999999.99999
5999999.99999
5999999.99996
5999999.99995
6000000.00005
5999999.99999
5999999.99999
5999999.99998
5999999.99999
6000000.0001
5999999.99995
5999999.99999
5999999.99998
6000000
5999999.99996
5999999.99999
5999999.99995
5999999.99996
5999999.99999
5999999.99998
5999999.99995
5999999.99999
5999999.99998
6000000.00014
6000000
6000000.00003
6000000
5999999.99996
5999999.99999
6000000
6000000.00003
5999999.99964
6000000.00022
6000000.00006
6000000.00006
6000000.00004
6000000.00006
6000000.00002
5999999.99995
6000000.00041
6000000.00252
6000000.00174
6000000.00007
6000000.00242
6000000.00127
5999999.99724
6000000.00127
6000000.00047
6000000.00035
5999999.99961
5999999.99994
6000000.00001
5999999.99997
6000000.00001
5999999.99989
6000000.00013
6000000.00001
5999999.99997
6000000.00001
5999999.99997
6000000.00002
5999999.99985
6000000.00062
5999999.99903
6000000.00089
6000000.00266
5999999.99884
6000000.00325
5999999.99751
5999999.99795
6000000.00157
5999999.999
6000000.00303
5999999.99741
6000000.0001
6000000.0002
5999999.99979
5999999.99994
5999999.99997
6000000
6000000.00002
5999999.99994
6000000.00006
5999999.99997
5999999.99998
5999999.99998
5999999.99997
6000000.00006
5999999.99998
6000000
6000000.0001
5999999.99997
6000000
6000000.00003
5999999.99935
5999999.99999
5999999.99989
6000000.00021
6000000.00033
6000000.00063
5999999.99933
5999999.99979
6000000.00114
6000000.00123
5999999.99731
6000000.00016
6000000.00005
6000000.00068
6000000.00123
5999999.9975
5999999.99934
5999999.99941
6000000.00159
6000000.00421
5999999.99773
5999999.99973
5999999.99793
6000000.00063
5999999.99779
5999999.9976
5999999.99947
5999999.9979
5999999.99963
5999999.999
5999999.999
5999999.99893
6000000.00014
5999999.99803
5999999.99863
6000000.00267
6000000.00057
5999999.99789
5999999.99851
5999999.99838
5999999.99896
5999999.99888
5999999.99791
5999999.99976
5999999.99873
5999999.99639
6000000.00356
5999999.99903
5999999.99942
5999999.99927
5999999.99781
5999999.9976
6000000.00089
5999999.99845
5999999.99735
5999999.99977
5999999.99825
6000000.00011
6000000.00282
5999999.99718
5999999.99846
5999999.99765
5999999.99964
6000000.00166
5999999.99639
6000000.00365
6000000.00165
5999999.99905
6000000.00229
5999999.99677
5999999.99769
6000000.00057
5999999.99948
6000000.00002
5999999.99832
5999999.99885
6000000.00159
5999999.9984
5999999.99941
6000000.00136
5999999.99994
6000000.00097
6000000.00247
6000000.00123
6000000.00016
5999999.99878
5999999.99915
6000000.00278
6000000.00053
5999999.99739
5999999.99747
6000000.00026
6000000.00195
6000000.00058
5999999.99977
6000000.00059
6000000.00037
6000000.00065
5999999.99865
6000000.00021
6000000.00042
5999999.99947
6000000.00071
5999999.99885
6000000.00009
5999999.99938
6000000.00012
6000000.00082
5999999.9981
5999999.99977
5999999.99995
5999999.99896
5999999.99895
6000000
5999999.99983
5999999.99952
6000000.00022
5999999.9996
5999999.99987
5999999.99868
5999999.99933
5999999.9987
6000000.00039
5999999.99865
6000000.00233
5999999.99996
5999999.99946
6000000.003
5999999.99794
6000000.0004
6000000.00091
6000000.0037
6000000.0002
6000000.00192
6000000.00508
6000000.00296
5999999.99829
5999999.99879
6000000.00554
6000000.00453
6000000.00206
6000000.00171
5999999.9969
6000000.00422
6000000.00355
6000000.00211
6000000.0017
6000000.00197
5999999.99773
6000000.00306
6000000.00294
6000000.00094
5999999.99947
6000000.00688
6000000.0016
5999999.9977
6000000.00212
6000000.00067
6000000.00686
6000000.00239
5999999.9998
6000000
6000000.00602
5999999.99991
5999999.99838
6000000.00594
6000000.00532
6000000.00156
6000000.0038
6000000.0038
6000000.00207
5999999.99741
6000000.00225
6000000.00288
6000000.00469
6000000.00444
6000000.00242
6000000.00149
6000000.00289
6000000.00385
6000000.00133
6000000.00095
6000000.00396
5999999.99595
6000000.00394
6000000.00161
6000000.00673
6000000.00215
6000000.00315
6000000.00374
5999999.99784
6000000.00294
6000000.00256
5999999.99759
6000000.00367
5999999.9989
5999999.99949
5999999.99943
5999999.99959
5999999.99902
5999999.99942
5999999.99912
5999999.9995
5999999.99912
5999999.99907
5999999.99884
5999999.99938
5999999.99929
5999999.99917
6000000.00016
5999999.99894
5999999.99851
5999999.99928
5999999.99976
5999999.99893
5999999.99887
5999999.999
5999999.99935
5999999.99906
5999999.9984
5999999.99909
5999999.99869
5999999.99906
5999999.9989
5999999.9983
5999999.99878
5999999.99994
5999999.99878
5999999.99853
5999999.9993
5999999.99849
5999999.99948
5999999.99935
5999999.99876
5999999.99778
5999999.99887
5999999.99935
5999999.99898
5999999.99944
5999999.99948
5999999.99881
5999999.99868
5999999.99926
5999999.99793
5999999.99836
5999999.99935
5999999.9998
5999999.99982
5999999.99978
5999999.99937
5999999.99972
5999999.99848
5999999.9986
5999999.99874
5999999.99898
5999999.99922
5999999.99964
6000000.00132
5999999.9986
5999999.99971
5999999.99979
5999999.99986
5999999.99976
6000000.00041
5999999.99985
5999999.99992
6000000.0002
5999999.99989
5999999.99997
5999999.99978
5999999.99991
6000000.00023
5999999.99999
5999999.99989
5999999.99983
6000000.00015
6000000.00022
5999999.99989
6000000.00017
6000000.00002
6000000.00032
5999999.99977
5999999.99978
6000000.00023
5999999.99987
6000000.00032
5999999.99997
6000000.00002
5999999.99979
6000000.00014
6000000.00028
6000000.00005
6000000.00039
5999999.99987
6000000.00026
6000000.00026
5999999.99981
6000000.00002
5999999.99979
6000000.00026
6000000
5999999.99977
6000000.00039
6000000.00002
6000000.00017
6000000.00038
5999999.99982
5999999.9997
5999999.99997
6000000.00011
6000000.00011
6000000.00027
6000000.00027
5999999.99999
5999999.99992
6000000.00022
6000000.0001
6000000.00028
6000000.00008
6000000
6000000.00026
5999999.99994
6000000.00018
6000000.00043
6000000.00063
6000000.00058
6000000.00061
6000000.00041
6000000.00061
6000000.00053
6000000.00087
6000000.00058
6000000.00051
6000000.00046
6000000.0006
6000000.00061
6000000.00054
6000000.00048
6000000.00053
6000000.00046
6000000.00065
6000000.00074
6000000.00049
6000000.0005
6000000.00066
6000000.00039
6000000.00053
6000000.00058
6000000.00061
6000000.00053
6000000.00044
6000000.0006
6000000.00055
6000000.00044
6000000.00064
6000000.00069
6000000.00069
6000000.00039
6000000.00062
6000000.00039
6000000.00055
6000000.00045
6000000.00046
6000000.0007
6000000.00055
6000000.00067
6000000.0007
6000000.00053
6000000.00048
6000000.00044
6000000.00063
6000000.00062
6000000.00066
6000000.00052
6000000.00054
6000000.00042
6000000.0006
6000000.00068
6000000.00052
6000000.00074
6000000.00071
6000000.00056
6000000.00061
6000000.00051
6000000.00068
6000000.00077
6000000.00063
5999999.99925
5999999.99926
5999999.99926
5999999.99933
5999999.99933
5999999.99946
5999999.99927
5999999.99934
5999999.99924
5999999.99912
5999999.99933
5999999.99931
5999999.99968
5999999.9993
5999999.99924
5999999.99936
5999999.99919
5999999.99939
5999999.99936
5999999.99924
5999999.9993
5999999.99917
5999999.99944
5999999.99943
5999999.99911
5999999.99925
5999999.99951
5999999.99926
5999999.99933
5999999.99935
5999999.99921
5999999.99961
5999999.99951
5999999.99938
5999999.99923
5999999.99924
5999999.99945
5999999.99908
5999999.9991
5999999.99922
5999999.99935
5999999.99935
5999999.99929
5999999.99926
5999999.99934
5999999.99918
5999999.99945
5999999.99934
5999999.99927
5999999.99929
5999999.99923
5999999.99918
5999999.99911
5999999.9991
5999999.99919
5999999.99932
5999999.99939
5999999.99945
5999999.99934
5999999.99927
5999999.99927
5999999.99923
5999999.99929
5999999.99919
5999999.99962
5999999.99958
5999999.99954
5999999.99984
5999999.99966
5999999.99979
5999999.99985
5999999.99961
5999999.99986
5999999.9997
5999999.99962
5999999.99949
5999999.99967
5999999.99977
5999999.99989
5999999.99986
5999999.99983
5999999.9996
5999999.9996
5999999.99956
5999999.99984
5999999.99956
5999999.99965
5999999.99946
5999999.99959
5999999.99962
5999999.99957
5999999.99963
5999999.99974
6000000
5999999.99972
5999999.99972
5999999.99968
5999999.99967
5999999.99952
5999999.99955
5999999.99991
5999999.99962
5999999.99969
5999999.99952
5999999.99981
5999999.99967
5999999.99963
5999999.99979
5999999.99971
5999999.99963
5999999.99984
5999999.99962
5999999.99976
5999999.99975
5999999.9998
5999999.99978
5999999.99956
5999999.99957
5999999.99953
5999999.99967
5999999.9997
5999999.99937
5999999.99962
5999999.99956
5999999.99957
5999999.99958
5999999.99989
5999999.99966
6000000.00021
6000000.00021
6000000.00008
6000000.00001
6000000.00002
6000000.00001
6000000.00017
6000000.00006
6000000.00004
5999999.99993
5999999.99992
6000000.00006
6000000.0001
6000000.00028
6000000.00009
6000000.00013
6000000.00025
5999999.99997
5999999.9999
6000000.00009
6000000.00015
6000000.0002
6000000.00009
6000000.00028
6000000.00013
6000000.00005
6000000.00026
6000000.00012
6000000.00019
6000000.00037
6000000.0001
6000000.00022
5999999.99996
6000000.00019
6000000.00004
6000000.00005
6000000.00019
6000000
6000000.00007
5999999.99996
6000000.00017
6000000.00021
6000000.00009
6000000.00019
6000000
6000000.00007
6000000.00009
5999999.99995
6000000.00006
5999999.99996
6000000.00018
6000000.00008
6000000