/*--------------------------------*- C++ -*----------------------------------*\
  =========                 |
  \\      /  F ield         | OpenFOAM: The Open Source CFD Toolbox
   \\    /   O peration     | Website:  https://openfoam.org
    \\  /    A nd           | Version:  6
     \\/     M anipulation  |
\*---------------------------------------------------------------------------*/
FoamFile
{
    version     2.0;
    format      ascii;
    class       volVectorField;
    location    "2.6e-05";
    object      U;
}
// * * * * * * * * * * * * * * * * * * * * * * * * * * * * * * * * * * * * * //

dimensions      [0 1 -1 0 0 0 0];

internalField   nonuniform List<vector> 
8192
(
(-88.3220000002 0 -1.59523041444e-10)
(-88.3219999997 0 -2.43086795673e-11)
(-88.322 0 -3.31397054029e-11)
(-88.322 0 -3.89154398428e-11)
(-88.322 0 -5.76504496558e-12)
(-88.322 0 -2.65612271284e-12)
(-88.322 0 -1.17940000615e-12)
(-88.322 0 -5.16740085093e-12)
(-88.322 0 -3.93665684437e-11)
(-88.322 0 -1.83287380397e-10)
(-88.322 0 -1.54989958046e-10)
(-88.322 0 7.88045240357e-11)
(-88.322 0 1.5171753105e-10)
(-88.322 0 -1.30613963103e-10)
(-88.322 0 -2.96516873022e-10)
(-88.322 0 7.93371235697e-11)
(-88.322 0 -3.55272631998e-11)
(-88.322 0 1.54309866762e-10)
(-88.322 0 -2.06295618878e-10)
(-88.322 0 -1.27431914168e-10)
(-88.322 0 1.59077718598e-10)
(-88.322 0 1.53883806951e-10)
(-88.322 0 -6.01736617687e-11)
(-88.322 0 -8.78508070524e-11)
(-88.322 0 1.77446936166e-11)
(-88.322 0 1.00474741487e-11)
(-88.322 0 1.51053200021e-11)
(-88.322 0 1.64885662886e-11)
(-88.322 0 1.24019519071e-11)
(-88.322 0 -1.46176537479e-11)
(-88.3219999999 0 3.49763404522e-11)
(-88.322 0 1.90946358245e-11)
(-88.3219999997 0 -1.87756937625e-11)
(-88.3220000002 0 1.73131897137e-10)
(-88.3220000006 0 -1.18944119795e-10)
(-88.3219999997 0 -1.46355929221e-10)
(-88.322 0 1.16039322062e-11)
(-88.3219999999 0 -1.62149136748e-10)
(-88.3219999997 0 7.0179645856e-11)
(-88.3220000001 0 3.33061600237e-12)
(-88.322 0 1.43133161709e-11)
(-88.322 0 -1.69497511986e-12)
(-88.322 0 -9.83391858155e-12)
(-88.322 0 -4.32887278173e-12)
(-88.322 0 -2.25122839627e-11)
(-88.322 0 -8.12511770686e-12)
(-88.322 0 -3.97056852266e-12)
(-88.322 0 -8.45066072134e-13)
(-88.322 0 1.84337695612e-12)
(-88.322 0 -1.12999543544e-11)
(-88.322 0 -1.73716421304e-12)
(-88.322 0 -1.13586680353e-11)
(-88.322 0 -1.21775560313e-11)
(-88.3219999999 0 3.76384624741e-11)
(-88.3220000002 0 3.78761942461e-11)
(-88.3220000001 0 -5.89600840118e-11)
(-88.3219999999 0 -4.22525734295e-12)
(-88.322 0 -2.906251887e-11)
(-88.322 0 -1.25240477922e-11)
(-88.3219999998 0 -2.2140055055e-11)
(-88.3219999996 0 8.04501510324e-11)
(-88.3219999998 0 1.56448416725e-10)
(-88.3220000002 0 1.6084050902e-10)
(-88.3220000007 0 7.10126117815e-11)
(-88.322 0 6.04028750323e-11)
(-88.322 0 -6.51222250297e-12)
(-88.322 0 1.71940010254e-11)
(-88.322 0 8.41843553598e-12)
(-88.322 0 7.23797696107e-12)
(-88.322 0 -1.1485692146e-12)
(-88.322 0 -2.47589728868e-13)
(-88.3220000001 0 9.14171510737e-14)
(-88.3220000003 0 -7.913196664e-13)
(-88.3220000002 0 -1.10224674446e-11)
(-88.3219999995 0 -1.51462106784e-12)
(-88.3219999994 0 -2.06589445102e-11)
(-88.3220000004 0 -1.82282491425e-12)
(-88.3220000009 0 -9.21971967476e-12)
(-88.3219999996 0 -3.93446167387e-11)
(-88.3219999995 0 1.96961097939e-11)
(-88.3219999999 0 2.83159521032e-13)
(-88.3220000003 0 1.15408272058e-11)
(-88.3220000005 0 -2.63056800676e-11)
(-88.3219999993 0 -1.46333470062e-11)
(-88.3219999995 0 -4.49235315365e-13)
(-88.3220000005 0 1.90976457354e-11)
(-88.3220000004 0 3.7185907393e-11)
(-88.3219999998 0 -2.61137077295e-11)
(-88.3219999998 0 1.27093018696e-10)
(-88.322 0 -9.02869084601e-11)
(-88.322 0 1.02181462109e-10)
(-88.322 0 8.76568146828e-11)
(-88.322 0 5.83065361754e-11)
(-88.322 0 2.648984779e-11)
(-88.322 0 -4.30062847356e-12)
(-88.322 0 -2.19939745424e-11)
(-88.322 0 6.06852204373e-12)
(-88.322 0 -1.61556761671e-10)
(-88.322 0 8.91502753846e-11)
(-88.322 0 1.24942281926e-10)
(-88.322 0 -2.27816995916e-11)
(-88.322 0 6.79815552119e-11)
(-88.322 0 -6.45554201751e-11)
(-88.322 0 -6.44667667824e-12)
(-88.322 0 3.7796109991e-12)
(-88.322 0 -2.02995906214e-12)
(-88.322 0 -7.27938130194e-12)
(-88.322 0 1.21671887383e-11)
(-88.322 0 -1.10241573626e-10)
(-88.322 0 -6.54929523694e-11)
(-88.322 0 -1.04777839484e-10)
(-88.322 0 -8.10168771295e-11)
(-88.322 0 -8.36111338849e-11)
(-88.322 0 -6.21729047411e-11)
(-88.322 0 7.26638115546e-11)
(-88.322 0 1.67992298724e-11)
(-88.322 0 5.02971135412e-12)
(-88.322 0 1.15439843753e-11)
(-88.322 0 -7.44349578949e-11)
(-88.322 0 1.57123892648e-10)
(-88.322 0 -4.6985681063e-11)
(-88.322 0 -1.6721644997e-10)
(-88.322 0 -2.12138933382e-10)
(-88.322 0 9.25286728283e-11)
(-88.322 0 4.54983110365e-11)
(-88.322 0 -3.42304292641e-10)
(-88.322 0 -3.18008585481e-10)
(-88.322 0 -1.30028471928e-10)
(-88.3219999999 0 9.42373733118e-12)
(-88.3219999998 0 4.67484946656e-12)
(-88.322 0 -2.80757238027e-12)
(-88.322 0 2.49438667403e-11)
(-88.322 0 5.63117864274e-12)
(-88.322 0 9.82210326051e-12)
(-88.322 0 2.37176874987e-12)
(-88.322 0 8.64434220108e-12)
(-88.322 0 2.71335140518e-11)
(-88.322 0 1.76701940127e-10)
(-88.322 0 1.50147978827e-10)
(-88.322 0 -7.49810648603e-11)
(-88.322 0 -1.56072219078e-10)
(-88.3220000001 0 1.10678739564e-10)
(-88.3219999999 0 2.82209831952e-10)
(-88.3219999999 0 -7.86902484802e-11)
(-88.322 0 3.37104388178e-11)
(-88.322 0 -1.40452870978e-10)
(-88.3220000001 0 2.01644680833e-10)
(-88.3219999999 0 1.16880648705e-10)
(-88.3219999999 0 -1.58037839178e-10)
(-88.3219999999 0 -1.4018456313e-10)
(-88.3220000001 0 7.57109569579e-11)
(-88.3219999998 0 8.88335199022e-11)
(-88.3220000001 0 -1.10380107155e-12)
(-88.322 0 -1.03721126279e-11)
(-88.3219999996 0 4.90738267799e-13)
(-88.3220000001 0 3.57044985671e-13)
(-88.3220000002 0 6.65154924338e-11)
(-88.3220000001 0 -5.55965788898e-11)
(-88.322 0 5.74726480248e-11)
(-88.322 0 6.28158125972e-12)
(-88.322 0 -5.46534350579e-11)
(-88.322 0 8.23723044172e-11)
(-88.322 0 1.64657008647e-10)
(-88.322 0 -1.4558226827e-11)
(-88.3220000001 0 -1.37640306764e-10)
(-88.322 0 1.73265301642e-10)
(-88.3219999998 0 1.82960539154e-10)
(-88.322 0 -1.94562166879e-10)
(-88.322 0 -1.37839068339e-10)
(-88.322 0 -2.64128069436e-11)
(-88.322 0 -6.0162179544e-11)
(-88.3220000002 0 -2.12028453243e-11)
(-88.3220000001 0 -4.04276594181e-11)
(-88.3219999999 0 6.10114515685e-12)
(-88.322 0 -1.0795891096e-10)
(-88.3219999999 0 -2.5338116607e-10)
(-88.322 0 6.16761810903e-11)
(-88.3219999997 0 3.91559587088e-12)
(-88.3219999998 0 -4.86024923126e-11)
(-88.3220000002 0 5.30387413221e-11)
(-88.322 0 -1.25101659191e-10)
(-88.3220000001 0 8.16617303997e-11)
(-88.3219999999 0 -1.58272760332e-11)
(-88.3220000001 0 -1.03871104018e-10)
(-88.3220000006 0 -7.71720880289e-11)
(-88.3220000003 0 -6.42268789175e-11)
(-88.3219999995 0 -4.85454347038e-11)
(-88.3219999993 0 -3.99138013499e-11)
(-88.3220000005 0 -2.9557441072e-11)
(-88.3220000005 0 1.79690545831e-11)
(-88.3219999997 0 -1.77341054826e-12)
(-88.3219999999 0 7.9541894043e-12)
(-88.322 0 1.0595241584e-10)
(-88.322 0 3.17731876079e-11)
(-88.322 0 1.28385778337e-11)
(-88.322 0 2.0432708889e-11)
(-88.322 0 -1.10701192231e-11)
(-88.322 0 -5.91357627656e-13)
(-88.322 0 9.84641232756e-13)
(-88.322 0 9.21497926272e-12)
(-88.322 0 3.29400711911e-12)
(-88.322 0 2.21434968619e-11)
(-88.322 0 6.09546831137e-12)
(-88.322 0 9.26676077665e-12)
(-88.322 0 9.03856666209e-12)
(-88.322 0 2.89972088473e-11)
(-88.322 0 4.68763071984e-11)
(-88.322 0 -2.52949772484e-11)
(-88.322 0 1.7709309568e-13)
(-88.322 0 -2.27784022205e-11)
(-88.322 0 2.58986496534e-11)
(-88.322 0 4.42618000697e-11)
(-88.322 0 -8.50221883492e-11)
(-88.322 0 -2.63957666307e-10)
(-88.322 0 6.36306570488e-11)
(-88.322 0 9.09974775847e-11)
(-88.322 0 -6.59755514196e-11)
(-88.322 0 1.37583376277e-10)
(-88.322 0 -7.42505489129e-11)
(-88.3219999999 0 -6.23501830158e-11)
(-88.3220000001 0 -5.55422763826e-11)
(-88.322 0 -2.14387002774e-11)
(-88.3219999999 0 1.61054638567e-11)
(-88.3220000003 0 -1.84351726117e-11)
(-88.3219999998 0 -6.76048040043e-12)
(-88.3219999996 0 -4.62553164203e-12)
(-88.3220000002 0 1.61313452512e-11)
(-88.3220000006 0 1.99751809812e-11)
(-88.3219999996 0 -5.68373164159e-12)
(-88.3219999994 0 9.30879955307e-11)
(-88.3220000007 0 -1.48609503923e-12)
(-88.3220000006 0 5.97503254436e-14)
(-88.3219999997 0 -6.90593386394e-12)
(-88.3219999999 0 -4.7230357987e-12)
(-88.322 0 5.67222824546e-12)
(-88.322 0 -8.85819670801e-12)
(-88.3219999999 0 1.28915958971e-10)
(-88.3220000001 0 6.7246684642e-11)
(-88.3220000005 0 1.02525421679e-10)
(-88.3219999997 0 7.24766053165e-11)
(-88.3219999995 0 8.68468088784e-11)
(-88.3220000002 0 6.66682625363e-11)
(-88.3219999999 0 -7.33712062903e-11)
(-88.3220000002 0 1.32173546244e-11)
(-88.3219999999 0 -4.39458874903e-11)
(-88.3219999998 0 1.13586592374e-10)
(-88.3220000004 0 1.68261486267e-10)
(-88.3220000001 0 -2.34890048617e-10)
(-88.322 0 -2.34800651592e-11)
(-88.322 0 1.89847763544e-10)
(-88.322 0 1.21615978862e-10)
(-88.3219999999 0 -5.19187349273e-11)
(-88.3219999999 0 -2.36685454248e-10)
(-88.322 0 3.21206480109e-10)
(-88.322 0 1.91252864618e-10)
(-88.322 0 1.01858820289e-10)
(-88.3220000001 0 -4.48895228603e-11)
(-88.322 0 -1.24506418357e-11)
(-88.322 0 1.01467968794e-11)
(-88.322 0 4.46916090017e-12)
(-88.322 0 -1.12373390244e-11)
(-88.322 0 3.59414119008e-12)
(-88.322 0 4.50434574968e-12)
(-88.322 0 1.45657895244e-11)
(-88.322 0 9.60330838966e-12)
(-88.322 0 2.39520819092e-12)
(-88.322 0 3.8746640751e-12)
(-88.322 0 -2.94902040778e-11)
(-88.322 0 -3.74142488603e-11)
(-88.322 0 -6.76146482233e-12)
(-88.322 0 4.30505479648e-12)
(-88.322 0 4.4095145497e-12)
(-88.322 0 9.36425919353e-12)
(-88.322 0 4.30643385281e-12)
(-88.3219999999 0 -6.10978693581e-13)
(-88.3220000002 0 6.81013150945e-12)
(-88.3220000005 0 2.38353382419e-12)
(-88.3219999996 0 7.49277831898e-13)
(-88.3219999994 0 2.83353102677e-12)
(-88.3220000001 0 -1.81725816933e-11)
(-88.322 0 7.90536099692e-12)
(-88.3220000001 0 6.39807980961e-12)
(-88.322 0 4.80286197944e-11)
(-88.322 0 5.27020355354e-11)
(-88.3220000001 0 8.325892717e-11)
(-88.322 0 2.11902909811e-11)
(-88.322 0 5.04189527351e-11)
(-88.3220000001 0 8.10739888429e-11)
(-88.322 0 -2.01011068151e-11)
(-88.322 0 -1.03068075641e-10)
(-88.322 0 -2.32905314341e-10)
(-88.322 0 -7.96546854462e-11)
(-88.322 0 1.50043667649e-10)
(-88.322 0 -1.99267960804e-10)
(-88.322 0 -1.80228585562e-10)
(-88.322 0 1.71794852437e-10)
(-88.322 0 1.1135499497e-10)
(-88.322 0 2.86022144069e-11)
(-88.322 0 4.90758574441e-11)
(-88.322 0 1.81920937972e-11)
(-88.322 0 2.32058262206e-11)
(-88.322 0 -6.2619506902e-12)
(-88.322 0 1.01916447398e-10)
(-88.322 0 2.36336403574e-10)
(-88.322 0 -5.67963317387e-11)
(-88.322 0 -6.27197707709e-12)
(-88.3219999999 0 4.34787621748e-11)
(-88.3220000001 0 -3.24759993524e-11)
(-88.3219999998 0 9.7245648909e-11)
(-88.3219999997 0 -8.03728392865e-11)
(-88.3220000006 0 -1.33862141252e-11)
(-88.3220000004 0 -8.63503514223e-11)
(-88.3219999997 0 -5.89928306717e-11)
(-88.322 0 5.93050960347e-11)
(-88.3219999999 0 -1.98137832045e-10)
(-88.322 0 1.99794688528e-10)
(-88.3219999998 0 1.02596836115e-10)
(-88.3219999997 0 9.29137661222e-11)
(-88.3220000002 0 5.14075029565e-11)
(-88.3220000001 0 3.60447208578e-11)
(-88.3220000001 0 -8.01555813523e-12)
(-88.3219999999 0 -1.73551779517e-11)
(-88.322 0 4.72163211771e-11)
(-88.322 0 1.8694903889e-10)
(-88.322 0 -1.33859969728e-10)
(-88.322 0 1.65284975346e-10)
(-88.322 0 2.088046648e-10)
(-88.322 0 -4.93987280664e-11)
(-88.322 0 -1.08307704285e-11)
(-88.322 0 1.37351452049e-11)
(-88.322 0 -1.19831771195e-13)
(-88.322 0 1.77731089895e-11)
(-88.322 0 3.8036932972e-11)
(-88.322 0 -4.91803330993e-11)
(-88.322 0 1.38294304374e-10)
(-88.322 0 1.37076268208e-10)
(-88.322 0 9.74069211535e-11)
(-88.322 0 5.64555514503e-11)
(-88.322 0 -3.07968558105e-11)
(-88.322 0 -4.07279450761e-11)
(-88.322 0 2.08964198169e-10)
(-88.322 0 3.58694807517e-10)
(-88.322 0 -1.207620465e-10)
(-88.322 0 -1.80132811248e-10)
(-88.322 0 -1.02998854277e-10)
(-88.3219999999 0 1.47951329059e-10)
(-88.3219999999 0 7.52506047887e-11)
(-88.3219999998 0 -1.76095310411e-11)
(-88.3220000002 0 1.07912476865e-10)
(-88.3220000001 0 6.97730458323e-11)
(-88.3219999998 0 5.32188749096e-11)
(-88.3220000004 0 -1.1143158529e-10)
(-88.3220000002 0 2.36811728986e-11)
(-88.322 0 6.88172067969e-12)
(-88.3220000001 0 -2.19551018275e-13)
(-88.3219999998 0 -2.05997009804e-12)
(-88.3219999999 0 4.56681843169e-12)
(-88.322 0 4.14448064275e-12)
(-88.322 0 -2.5788024043e-12)
(-88.322 0 1.71633759255e-11)
(-88.322 0 7.62171378149e-12)
(-88.322 0 -6.67851264571e-12)
(-88.322 0 1.01995819165e-12)
(-88.322 0 9.28456637364e-13)
(-88.322 0 1.71310581507e-13)
(-88.322 0 -1.61214752502e-13)
(-88.322 0 8.28014082013e-13)
(-88.322 0 1.96119071888e-11)
(-88.322 0 -9.68987268516e-12)
(-88.322 0 -3.29952428538e-12)
(-88.322 0 4.43529432161e-12)
(-88.322 0 -1.92942675898e-11)
(-88.322 0 7.59562374073e-11)
(-88.322 0 -1.43561904451e-10)
(-88.3220000004 0 -1.24083147898e-10)
(-88.3220000002 0 1.40820156793e-10)
(-88.3219999996 0 8.49718008527e-11)
(-88.3220000003 0 1.08490491351e-11)
(-88.3219999997 0 9.92042222342e-11)
(-88.3219999993 0 -2.08817066145e-11)
(-88.3220000001 0 1.11442312026e-10)
(-88.3220000001 0 -1.21701143306e-10)
(-88.3220000001 0 -1.48718502631e-11)
(-88.3220000002 0 -3.81834665154e-11)
(-88.322 0 5.45392236251e-11)
(-88.3219999999 0 8.94553192386e-12)
(-88.3219999996 0 -1.12292862802e-11)
(-88.3220000004 0 3.03721536965e-13)
(-88.322 0 1.20792848122e-12)
(-88.3219999993 0 -6.48852213648e-13)
(-88.3220000004 0 -9.22482254075e-12)
(-88.3220000004 0 -8.64303832665e-12)
(-88.3219999999 0 1.40350408391e-11)
(-88.322 0 -7.10044430181e-11)
(-88.322 0 1.08612340237e-10)
(-88.3219999999 0 -1.80433871119e-10)
(-88.3220000001 0 -2.4821808672e-10)
(-88.3219999998 0 -4.51320137835e-11)
(-88.3219999997 0 -5.24243359709e-11)
(-88.3220000001 0 -2.14858462011e-11)
(-88.3220000001 0 -5.0101145647e-12)
(-88.3220000003 0 -5.70642472109e-12)
(-88.3220000001 0 1.60948049632e-12)
(-88.3219999997 0 -8.33913273987e-13)
(-88.3219999997 0 -4.22092859654e-13)
(-88.3220000003 0 9.42399069997e-13)
(-88.3220000005 0 -2.60461256889e-12)
(-88.322 0 1.51405312923e-11)
(-88.3219999994 0 -2.24054112373e-11)
(-88.3219999997 0 6.51197625635e-13)
(-88.3220000004 0 -5.42282010248e-11)
(-88.322 0 -5.01268433681e-11)
(-88.3219999999 0 -1.50955707438e-10)
(-88.3220000001 0 3.26073329201e-11)
(-88.3220000004 0 -1.16513820568e-10)
(-88.3220000001 0 -1.27635573952e-10)
(-88.3219999997 0 1.67849717699e-10)
(-88.322 0 5.97352320409e-11)
(-88.322 0 -1.01156910482e-10)
(-88.322 0 -8.92098046809e-12)
(-88.322 0 -5.93032854587e-11)
(-88.322 0 2.41102681483e-10)
(-88.322 0 2.51898691807e-11)
(-88.322 0 -5.89779807869e-11)
(-88.322 0 1.16547065272e-12)
(-88.322 0 1.73931155505e-12)
(-88.322 0 2.54111453367e-13)
(-88.322 0 6.28873737271e-12)
(-88.322 0 1.85443131207e-11)
(-88.322 0 5.90787600141e-13)
(-88.322 0 -4.27948767927e-14)
(-88.322 0 -3.70132094748e-13)
(-88.322 0 1.06149172496e-12)
(-88.322 0 6.13982488289e-13)
(-88.322 0 6.21791837005e-12)
(-88.322 0 -3.18158928121e-12)
(-88.322 0 1.09711216846e-11)
(-88.322 0 -1.98481885805e-11)
(-88.322 0 1.51059715159e-11)
(-88.322 0 1.54581514701e-10)
(-88.322 0 9.27374822436e-11)
(-88.322 0 -4.66957948786e-12)
(-88.322 0 2.4527193828e-10)
(-88.322 0 -1.37577676567e-10)
(-88.322 0 -6.34129124664e-11)
(-88.322 0 3.93614090266e-11)
(-88.322 0 5.04512453866e-11)
(-88.322 0 -1.58102554208e-11)
(-88.322 0 3.70523370794e-11)
(-88.322 0 2.5784881364e-11)
(-88.322 0 -4.72869282778e-11)
(-88.322 0 -1.78355491052e-10)
(-88.322 0 1.46601717689e-10)
(-88.322 0 -1.63325837451e-10)
(-88.322 0 -2.09084740452e-10)
(-88.322 0 4.88394264413e-11)
(-88.3220000001 0 1.09865213666e-11)
(-88.3219999998 0 -2.30208385543e-11)
(-88.3220000003 0 3.56999857709e-12)
(-88.3220000008 0 -1.07094548732e-11)
(-88.3219999997 0 -1.99094806525e-11)
(-88.3219999996 0 3.3578481118e-11)
(-88.3219999999 0 -1.39457116373e-10)
(-88.3219999999 0 -1.23883998746e-10)
(-88.322 0 -9.07467944827e-11)
(-88.322 0 -4.82156111196e-11)
(-88.322 0 3.40071473603e-11)
(-88.322 0 1.18441675639e-11)
(-88.322 0 -1.16084420855e-10)
(-88.322 0 -1.16590085036e-10)
(-88.322 0 2.1300250493e-11)
(-88.322 0 1.18052677873e-10)
(-88.322 0 4.24165761228e-11)
(-88.322 0 -1.86807836262e-10)
(-88.322 0 -1.03249097203e-10)
(-88.322 0 -9.79322418746e-12)
(-88.322 0 -1.16925222824e-10)
(-88.322 0 -6.91405349092e-11)
(-88.3220000001 0 -8.14224717481e-11)
(-88.3219999999 0 1.30800246928e-10)
(-88.3219999999 0 -1.08229743754e-11)
(-88.3220000005 0 -4.20032273234e-12)
(-88.3220000003 0 -9.44715519543e-12)
(-88.3219999997 0 -3.71458834258e-13)
(-88.3219999994 0 2.03875825263e-11)
(-88.3219999999 0 -4.07297916905e-12)
(-88.3220000006 0 7.13802539343e-12)
(-88.3220000001 0 -1.39463324008e-11)
(-88.3219999998 0 -4.67388254633e-12)
(-88.322 0 1.33687266634e-11)
(-88.322 0 1.34115524034e-12)
(-88.322 0 -3.27090265626e-12)
(-88.322 0 -1.91119530684e-11)
(-88.322 0 -5.01924601405e-12)
(-88.322 0 1.24587859462e-12)
(-88.322 0 -1.2599931176e-11)
(-88.322 0 5.50636134203e-12)
(-88.322 0 2.48874859569e-12)
(-88.322 0 -7.47530845296e-12)
(-88.322 0 6.42796541687e-13)
(-88.322 0 -3.49996582284e-11)
(-88.322 0 1.54696910175e-10)
(-88.322 0 1.18459818472e-10)
(-88.322 0 -1.93008697185e-10)
(-88.322 0 -1.13864533951e-10)
(-88.322 0 -1.90597737208e-11)
(-88.322 0 -1.21437574835e-10)
(-88.322 0 3.9625375614e-11)
(-88.3219999998 0 -1.11963918817e-10)
(-88.3219999999 0 1.26218709592e-10)
(-88.3220000002 0 1.01181374241e-11)
(-88.3220000002 0 1.77651836636e-11)
(-88.322 0 -4.24482449014e-11)
(-88.322 0 -1.53214582888e-11)
(-88.322 0 2.22931512908e-12)
(-88.322 0 -4.79171621019e-12)
(-88.322 0 3.82646024129e-12)
(-88.322 0 3.27116207618e-12)
(-88.322 0 1.85790277775e-12)
(-88.322 0 -6.10355069555e-12)
(-88.322 0 -1.68527110244e-11)
(-88.322 0 5.90346004776e-11)
(-88.322 0 -1.14437054512e-10)
(-88.322 0 2.05613373666e-10)
(-88.322 0 2.92422437558e-10)
(-88.322 0 4.75822516478e-11)
(-88.322 0 4.89291571277e-11)
(-88.322 0 1.67963260066e-11)
(-88.322 0 -4.13796757499e-12)
(-88.322 0 5.54173955678e-12)
(-88.322 0 6.77489368445e-13)
(-88.322 0 -4.2421978305e-14)
(-88.322 0 -3.45317539944e-12)
(-88.322 0 3.43687080591e-12)
(-88.322 0 5.9416629756e-12)
(-88.322 0 1.1542458719e-12)
(-88.322 0 5.89846339621e-12)
(-88.322 0 -6.68598595295e-12)
(-88.322 0 4.05696391764e-12)
(-88.322 0 5.37519742762e-12)
(-88.322 0 -4.74932462457e-12)
(-88.322 0 8.2318204967e-12)
(-88.322 0 8.60927045375e-12)
(-88.322 0 2.55065000812e-11)
(-88.322 0 -7.05002900024e-11)
(-88.322 0 1.3661657254e-10)
(-88.322 0 6.84700891161e-11)
(-88.322 0 -1.21831312542e-11)
(-88.322 0 2.38999794373e-11)
(-88.322 0 -3.26848286594e-10)
(-88.322 0 -5.89573746404e-12)
(-88.322 0 7.59150801599e-11)
(-88.322 0 1.03855248352e-11)
(-88.322 0 -3.08318360034e-12)
(-88.322 0 1.3120276624e-11)
(-88.322 0 -1.12459571855e-11)
(-88.322 0 -1.62965253552e-11)
(-88.322 0 -3.626920595e-12)
(-88.322 0 6.0576137044e-12)
(-88.322 0 1.24886033346e-11)
(-88.322 0 7.40081795747e-12)
(-88.322 0 1.31366516947e-11)
(-88.322 0 -3.55796260326e-12)
(-88.322 0 -4.27191773647e-12)
(-88.3219999997 0 7.49335860285e-12)
(-88.3219999997 0 2.04110044657e-11)
(-88.3220000007 0 3.44869056824e-11)
(-88.3220000005 0 -5.9982195944e-11)
(-88.3219999996 0 -2.70402914059e-11)
(-88.322 0 -3.41529581966e-11)
(-88.3219999999 0 -1.50376509237e-11)
(-88.322 0 -2.89474705122e-11)
(-88.3219999998 0 6.07736799002e-11)
(-88.3219999997 0 -2.78485034302e-10)
(-88.3220000002 0 -1.8103039428e-10)
(-88.322 0 -7.73282388938e-11)
(-88.3219999999 0 -3.82279066668e-12)
(-88.3219999999 0 3.76336517731e-11)
(-88.322 0 -1.53372278581e-11)
(-88.322 0 -9.24915362603e-12)
(-88.322 0 8.15001458538e-12)
(-88.322 0 4.26986326622e-12)
(-88.322 0 -1.42796894405e-11)
(-88.322 0 -2.9274514342e-11)
(-88.322 0 -1.27227144251e-11)
(-88.322 0 -1.36068218303e-11)
(-88.322 0 -9.26913949827e-13)
(-88.322 0 -9.29572745214e-12)
(-88.322 0 -6.88673340267e-12)
(-88.322 0 3.24719871416e-13)
(-88.322 0 -9.32268519937e-13)
(-88.322 0 -4.27872513339e-12)
(-88.322 0 -7.0695077663e-12)
(-88.322 0 -4.02176184874e-12)
(-88.322 0 5.63012477874e-12)
(-88.322 0 -2.75558425253e-11)
(-88.322 0 -3.48811044555e-11)
(-88.322 0 7.24494515694e-11)
(-88.322 0 8.56632064954e-11)
(-88.322 0 -1.19418694612e-10)
(-88.322 0 -1.2231463763e-10)
(-88.322 0 -7.69793234108e-11)
(-88.322 0 5.81741146813e-12)
(-88.322 0 -3.33693809491e-11)
(-88.322 0 1.9724996865e-11)
(-88.322 0 -6.2495115193e-11)
(-88.322 0 -1.14777414666e-10)
(-88.322 0 -1.16938674081e-10)
(-88.3219999996 0 -3.8386338761e-12)
(-88.3220000002 0 -1.46074783239e-10)
(-88.3220000006 0 -1.80386893061e-10)
(-88.3219999998 0 -2.36655950949e-10)
(-88.322 0 1.44953078618e-10)
(-88.3219999999 0 2.43209268502e-10)
(-88.3219999998 0 -1.91497584919e-10)
(-88.322 0 -2.10284518048e-10)
(-88.322 0 6.77669274323e-11)
(-88.322 0 1.8585556371e-11)
(-88.322 0 -1.82167230883e-10)
(-88.322 0 -1.69040402989e-10)
(-88.322 0 1.69595381702e-10)
(-88.322 0 -9.37870187282e-11)
(-88.322 0 4.87388771823e-11)
(-88.322 0 -2.10036642082e-10)
(-88.322 0 1.96036120652e-10)
(-88.322 0 -7.90164923142e-12)
(-88.322 0 1.37448516688e-11)
(-88.322 0 1.91068713738e-11)
(-88.322 0 -6.65629136795e-11)
(-88.322 0 -2.40667242753e-10)
(-88.3220000002 0 -2.13515304618e-10)
(-88.3220000001 0 2.70061498817e-11)
(-88.3219999999 0 2.25309021077e-10)
(-88.3219999999 0 2.61903713584e-10)
(-88.3219999999 0 -7.36621582888e-11)
(-88.3219999998 0 -1.51914568052e-10)
(-88.3220000003 0 1.28230522621e-10)
(-88.3220000003 0 -3.44760491895e-11)
(-88.3219999998 0 -5.91248932875e-11)
(-88.3219999999 0 2.40866310217e-11)
(-88.322 0 3.08798036504e-11)
(-88.3220000001 0 1.58441690969e-11)
(-88.3220000001 0 3.77827296819e-12)
(-88.322 0 -2.39803065516e-11)
(-88.322 0 2.04393329889e-12)
(-88.322 0 -2.69626921997e-11)
(-88.322 0 1.56824756831e-11)
(-88.322 0 1.33000359956e-11)
(-88.322 0 -1.92472577274e-11)
(-88.322 0 -1.24800068436e-10)
(-88.322 0 -8.14651589802e-11)
(-88.322 0 -1.37866119898e-10)
(-88.322 0 -1.6006198458e-10)
(-88.322 0 -1.23618582155e-10)
(-88.322 0 1.32559409141e-11)
(-88.322 0 2.03293643497e-11)
(-88.322 0 1.16243826255e-11)
(-88.322 0 -6.04397229108e-11)
(-88.322 0 -1.14201613295e-10)
(-88.3220000001 0 7.94623051121e-11)
(-88.3219999998 0 1.36829845728e-10)
(-88.3219999998 0 2.04264913078e-10)
(-88.3220000004 0 -9.79257104583e-11)
(-88.3220000004 0 -4.95291554993e-11)
(-88.3219999999 0 3.92488947413e-11)
(-88.3219999997 0 3.65519935135e-11)
(-88.3219999999 0 4.16447777816e-11)
(-88.322 0 1.65572720117e-11)
(-88.3220000001 0 1.52928186875e-11)
(-88.3220000003 0 5.68219968088e-12)
(-88.3220000001 0 -1.58110580071e-11)
(-88.3219999998 0 7.7753301745e-12)
(-88.322 0 -7.42600728325e-12)
(-88.3220000004 0 -1.875305236e-10)
(-88.3220000002 0 1.17621495907e-10)
(-88.3219999993 0 1.47647461016e-10)
(-88.321999999 0 7.05703913425e-11)
(-88.3220000007 0 2.07065017796e-10)
(-88.3220000009 0 -5.16822639341e-11)
(-88.3219999995 0 1.25528521538e-11)
(-88.3219999995 0 1.74053187311e-12)
(-88.3220000005 0 -1.01386243522e-12)
(-88.3220000004 0 2.30210965628e-12)
(-88.3219999993 0 -1.08459769333e-11)
(-88.3219999999 0 1.13381289785e-11)
(-88.3220000002 0 -1.04174574792e-11)
(-88.3220000002 0 -2.22549009203e-11)
(-88.3219999997 0 3.89471951178e-11)
(-88.3219999996 0 3.49298413375e-11)
(-88.3220000004 0 7.98971468093e-11)
(-88.3219999999 0 -8.73461696357e-11)
(-88.3220000002 0 -1.10289372757e-10)
(-88.3220000002 0 6.77231689286e-11)
(-88.322 0 -1.32453146715e-11)
(-88.3220000002 0 3.06085382163e-12)
(-88.3219999996 0 8.33568417691e-11)
(-88.3219999992 0 1.02080066465e-10)
(-88.3220000006 0 1.07804286904e-10)
(-88.3220000007 0 -1.88581805453e-11)
(-88.3219999996 0 8.20814403034e-13)
(-88.3219999996 0 -8.49848830689e-11)
(-88.3220000001 0 1.3369190994e-10)
(-88.3220000001 0 8.09973809276e-11)
(-88.3219999999 0 4.99018808607e-11)
(-88.322 0 -3.54200809548e-11)
(-88.322 0 -4.55240207076e-11)
(-88.322 0 1.26827903868e-11)
(-88.322 0 -9.64381402918e-12)
(-88.322 0 -1.54701590649e-12)
(-88.322 0 -8.13275897368e-12)
(-88.322 0 4.06089915876e-12)
(-88.3220000001 0 1.55011890555e-11)
(-88.3220000003 0 8.95790362864e-12)
(-88.3220000001 0 -3.90839205172e-13)
(-88.322 0 -2.60367785738e-11)
(-88.3220000001 0 -2.07751768653e-12)
(-88.322 0 -1.92136409711e-11)
(-88.3219999997 0 -8.68161285447e-12)
(-88.3219999997 0 -1.3665879993e-11)
(-88.322 0 -2.55840693652e-12)
(-88.3220000001 0 -6.05074514572e-13)
(-88.3220000002 0 3.93530529201e-12)
(-88.3219999997 0 -8.99542598617e-12)
(-88.3219999995 0 2.98757101665e-11)
(-88.3219999997 0 2.98786961773e-11)
(-88.3220000005 0 -6.45836625073e-11)
(-88.3220000005 0 -8.89450220076e-11)
(-88.3219999998 0 1.12536177324e-10)
(-88.3219999999 0 1.20756726557e-10)
(-88.322 0 7.17045685386e-11)
(-88.322 0 -4.41075735647e-12)
(-88.322 0 3.43073538844e-11)
(-88.322 0 -1.34358123528e-11)
(-88.322 0 6.35800852202e-11)
(-88.322 0 1.15279520081e-10)
(-88.322 0 1.15793984026e-10)
(-88.322 0 3.78833454662e-12)
(-88.322 0 1.4551812606e-10)
(-88.3219999999 0 1.84422457141e-10)
(-88.3219999999 0 2.47239469732e-10)
(-88.3219999999 0 -1.443167066e-10)
(-88.3220000001 0 -2.36309630347e-10)
(-88.3220000001 0 1.96339818948e-10)
(-88.322 0 2.08152503265e-10)
(-88.322 0 -6.38522001523e-11)
(-88.322 0 -1.8395668143e-11)
(-88.322 0 1.79850186845e-10)
(-88.322 0 1.6629709533e-10)
(-88.322 0 -1.7377423506e-10)
(-88.322 0 9.24044760841e-11)
(-88.3219999999 0 -5.00662675472e-11)
(-88.3219999999 0 2.0745365706e-10)
(-88.3219999999 0 -1.97959283959e-10)
(-88.3220000003 0 9.61951070192e-12)
(-88.3220000004 0 -1.21437426165e-11)
(-88.3219999997 0 -3.85661592943e-11)
(-88.3219999998 0 1.07766484896e-11)
(-88.3220000001 0 2.04246262602e-10)
(-88.322 0 1.80284056729e-10)
(-88.322 0 4.84267392239e-12)
(-88.3219999999 0 -9.53407970542e-11)
(-88.3220000002 0 -2.70674052755e-10)
(-88.3220000001 0 1.81123514175e-10)
(-88.3219999999 0 1.06908244394e-10)
(-88.322 0 -2.25377361899e-11)
(-88.322 0 -9.8900410272e-11)
(-88.322 0 2.17234443583e-11)
(-88.322 0 -4.2586654195e-11)
(-88.322 0 2.09906867773e-12)
(-88.322 0 1.53090528039e-11)
(-88.322 0 -5.90162903432e-12)
(-88.322 0 2.18403006573e-11)
(-88.322 0 -2.12397107105e-12)
(-88.322 0 2.36268106411e-11)
(-88.322 0 -2.15470105862e-11)
(-88.322 0 -2.93582317932e-11)
(-88.322 0 -2.91671479942e-11)
(-88.322 0 2.77416114624e-11)
(-88.322 0 8.71417195477e-11)
(-88.322 0 4.83452038357e-11)
(-88.322 0 -1.08143978983e-11)
(-88.322 0 -3.05442502536e-11)
(-88.322 0 -5.75404761237e-13)
(-88.322 0 -1.30818136928e-11)
(-88.322 0 -1.15898130631e-11)
(-88.322 0 5.58649447948e-11)
(-88.322 0 1.14497066892e-10)
(-88.322 0 -8.31940026546e-11)
(-88.322 0 -1.39116651397e-10)
(-88.322 0 -2.02043749681e-10)
(-88.322 0 8.79913882768e-11)
(-88.322 0 5.14667916519e-11)
(-88.322 0 -3.71482154763e-11)
(-88.322 0 -3.55016673836e-11)
(-88.322 0 -4.35186235458e-11)
(-88.322 0 -2.64320161557e-11)
(-88.322 0 -1.68751923901e-11)
(-88.322 0 -1.57528627897e-12)
(-88.322 0 1.20395404013e-11)
(-88.322 0 2.50738101485e-11)
(-88.322 0 -4.88231384085e-11)
(-88.322 0 6.26474181139e-11)
(-88.322 0 -9.59056464265e-11)
(-88.322 0 -9.74671257696e-11)
(-88.322 0 -1.15407626472e-10)
(-88.322 0 4.68696415085e-11)
(-88.322 0 -1.13935299131e-10)
(-88.322 0 -1.66583771464e-10)
(-88.322 0 1.27663915178e-10)
(-88.322 0 8.81862014371e-11)
(-88.322 0 -6.33457642038e-11)
(-88.322 0 -2.76223129275e-12)
(-88.322 0 -1.25233178502e-10)
(-88.322 0 -1.28803152333e-10)
(-88.322 0 -5.22645983217e-11)
(-88.322 0 -1.37664415879e-10)
(-88.322 0 -7.89961799323e-11)
(-88.322 0 -9.90766774958e-11)
(-88.322 0 7.00266331765e-11)
(-88.3220000001 0 1.22267825084e-10)
(-88.3219999997 0 -8.98247083592e-11)
(-88.3219999997 0 1.48234989824e-11)
(-88.3220000006 0 -6.97357442216e-11)
(-88.3220000002 0 7.20550305439e-11)
(-88.3219999997 0 -8.47921196741e-11)
(-88.322 0 -2.78656947186e-10)
(-88.322 0 -1.37198412458e-10)
(-88.322 0 -4.1906657436e-11)
(-88.322 0 1.18734017515e-11)
(-88.322 0 1.26022902318e-12)
(-88.322 0 -6.68218376216e-13)
(-88.322 0 4.59443362904e-13)
(-88.322 0 3.1569781846e-11)
(-88.322 0 -3.12414571353e-11)
(-88.322 0 -9.02897461772e-12)
(-88.322 0 -2.47008249992e-12)
(-88.322 0 -7.61064162276e-12)
(-88.322 0 -2.48376381893e-12)
(-88.322 0 8.10958337501e-12)
(-88.3220000001 0 -3.37234976984e-12)
(-88.3220000002 0 1.77484517709e-11)
(-88.3219999999 0 -5.03646249164e-11)
(-88.322 0 1.41533985839e-10)
(-88.3220000003 0 -1.90492997428e-10)
(-88.3220000001 0 -2.6658815246e-10)
(-88.3219999997 0 -1.50716135732e-11)
(-88.3219999997 0 -6.54098489821e-12)
(-88.322 0 -9.95413548359e-12)
(-88.322 0 -7.13644901989e-13)
(-88.322 0 -5.62280277626e-12)
(-88.322 0 2.33443232407e-12)
(-88.322 0 -2.7838188501e-12)
(-88.322 0 -4.47105700853e-12)
(-88.322 0 -1.26013838146e-11)
(-88.322 0 5.86984374308e-14)
(-88.322 0 6.30383755023e-12)
(-88.322 0 -3.77988933211e-13)
(-88.322 0 -2.26765978282e-12)
(-88.322 0 -8.89812676841e-12)
(-88.322 0 -5.0701970455e-12)
(-88.322 0 -1.9815873158e-11)
(-88.322 0 -1.03715706407e-12)
(-88.322 0 -1.80759319192e-14)
(-88.3220000001 0 8.99342044532e-13)
(-88.3219999999 0 -6.15324847569e-14)
(-88.3220000001 0 -1.02690607241e-12)
(-88.3220000002 0 -8.30575724312e-13)
(-88.3219999999 0 -1.64376335116e-12)
(-88.3219999996 0 -1.81245940898e-11)
(-88.3220000002 0 -1.60525092604e-12)
(-88.3220000005 0 -2.05625710932e-12)
(-88.3219999995 0 -1.17948365661e-12)
(-88.3219999995 0 1.34646088105e-13)
(-88.3220000004 0 2.01661592057e-12)
(-88.3220000002 0 1.7174530041e-13)
(-88.3220000001 0 4.95340830663e-13)
(-88.3220000002 0 4.36476691936e-13)
(-88.3219999999 0 -2.59251797388e-12)
(-88.3219999999 0 -7.08133757798e-13)
(-88.3219999999 0 -9.49193011332e-13)
(-88.3219999998 0 -5.14948911478e-13)
(-88.322 0 -1.74728676502e-13)
(-88.3219999999 0 -3.86849332495e-12)
(-88.322 0 4.10965567838e-11)
(-88.322 0 1.04817846796e-11)
(-88.322 0 6.40537245445e-12)
(-88.3219999999 0 -3.79225096874e-12)