/*--------------------------------*- C++ -*----------------------------------*\
  =========                 |
  \\      /  F ield         | OpenFOAM: The Open Source CFD Toolbox
   \\    /   O peration     | Website:  https://openfoam.org
    \\  /    A nd           | Version:  6
     \\/     M anipulation  |
\*---------------------------------------------------------------------------*/
FoamFile
{
    version     2.0;
    format      ascii;
    class       volScalarField;
    location    "4.65e-05";
    object      p;
}
// * * * * * * * * * * * * * * * * * * * * * * * * * * * * * * * * * * * * * //

dimensions      [1 -1 -2 0 0 0 0];

internalField   nonuniform List<scalar> 
8192
(
6000000.00053
5999999.99942
6000000.00052
6000000.00067
6000000.00425
5999999.99765
6000000.00137
5999999.9998
6000000.00011
5999999.99983
6000000.00025
5999999.99976
6000000.00063
6000000.00142
6000000.0007
6000000.0005
6000000.00057
5999999.99853
5999999.99894
6000000.00067
5999999.99852
5999999.99725
6000000.00174
5999999.99979
5999999.99958
6000000.00012
5999999.9985
5999999.99924
5999999.99823
5999999.99928
6000000.00019
6000000.0004
5999999.99671
5999999.99371
6000000.00772
6000000.00762
5999999.99904
6000000.00459
5999999.99933
5999999.99743
6000000.00303
5999999.99801
6000000.00011
5999999.9999
6000000.0003
6000000.00027
6000000.00002
6000000.00004
5999999.99915
6000000.00137
5999999.99732
6000000.00036
6000000.00291
5999999.99622
5999999.99693
6000000.00139
6000000.00002
6000000.0029
5999999.99986
6000000.00531
5999999.99676
5999999.99764
5999999.99722
6000000.00203
6000000.00049
6000000.00192
5999999.99966
6000000.00363
5999999.99599
6000000.00298
5999999.99876
5999999.99715
6000000.00261
6000000.00283
6000000.00685
5999999.99673
5999999.99428
6000000.00649
6000000.00254
5999999.99546
5999999.99469
5999999.99243
6000000.00315
6000000.00585
6000000.00009
5999999.99903
6000000.00641
6000000.00481
5999999.99789
5999999.99716
5999999.99874
5999999.99831
5999999.99718
6000000.0039
5999999.99708
6000000.00194
6000000.0016
5999999.99944
6000000.00374
5999999.99827
5999999.99968
5999999.99988
5999999.99971
6000000.00015
5999999.99908
6000000.00029
6000000.00012
6000000
5999999.99998
5999999.99998
6000000.00006
6000000.00017
5999999.99954
6000000.00059
5999999.99977
6000000.00112
6000000.00011
5999999.99889
6000000.00082
5999999.9993
5999999.99928
5999999.99894
6000000.00005
5999999.99927
6000000.00019
5999999.99953
6000000.00033
6000000.00033
6000000.00571
6000000.00055
5999999.99761
6000000.0006
5999999.99893
5999999.99946
5999999.99997
5999999.99982
6000000.00048
6000000.00086
5999999.99851
6000000.00372
6000000.00081
6000000.00324
6000000.00442
5999999.99679
5999999.9966
5999999.99813
6000000.00215
6000000.00233
5999999.99989
5999999.9999
5999999.99887
6000000.00066
5999999.99504
6000000.00088
5999999.99669
5999999.99656
6000000.00143
6000000.00065
5999999.9986
5999999.99912
5999999.99978
5999999.99958
6000000.00024
6000000.00054
5999999.99966
6000000.00229
6000000.00018
6000000.00109
5999999.9982
6000000.00056
5999999.99765
6000000.00298
6000000.00213
6000000.0028
6000000.00193
6000000.00408
6000000.00249
6000000.00071
5999999.99437
6000000.0027
6000000.00142
5999999.99818
6000000.00076
5999999.99793
6000000.00265
6000000.00128
6000000.00213
5999999.99381
5999999.99229
6000000.00184
6000000.00635
6000000.00422
5999999.9993
5999999.99962
6000000.00074
6000000.00016
5999999.99992
6000000.00001
5999999.99997
6000000.00001
6000000.00015
6000000.00002
6000000.00007
5999999.99779
5999999.99763
6000000.00273
5999999.99924
5999999.99998
6000000.00005
5999999.99998
6000000.0001
6000000.00026
6000000.00023
5999999.99944
5999999.99994
6000000.00003
5999999.99981
5999999.99998
5999999.99989
5999999.99624
6000000.00058
6000000.00152
5999999.99692
6000000.00093
6000000.00699
5999999.994
5999999.99675
6000000.00534
6000000.00865
5999999.99173
5999999.9956
6000000.00163
6000000.00385
5999999.99583
6000000.00297
6000000.00019
6000000.0045
5999999.99822
6000000.00719
6000000.00366
5999999.99208
6000000.00042
6000000.006
5999999.99808
6000000.00521
5999999.99427
5999999.99872
6000000.0017
6000000.00282
6000000.00354
6000000.00056
6000000.00218
6000000.00083
5999999.99894
5999999.99941
5999999.99915
5999999.99985
5999999.99887
6000000.00048
5999999.99819
6000000.0024
5999999.99857
5999999.99973
5999999.99933
5999999.99976
5999999.99992
5999999.99992
6000000.0011
6000000.00157
5999999.99694
6000000.00047
6000000.00105
6000000.00001
6000000.00254
5999999.99499
5999999.99727
6000000.00528
6000000.00127
5999999.99624
5999999.99513
5999999.99927
5999999.9948
5999999.99826
5999999.99483
6000000.0015
6000000.00486
5999999.99634
6000000.00057
5999999.9991
6000000.00135
5999999.99966
5999999.99924
6000000.0017
5999999.99758
6000000.00161
6000000.00005
6000000.00001
6000000.00016
6000000.00001
6000000.00001
6000000.00002
6000000.00024
5999999.99889
6000000.0014
5999999.99718
5999999.99984
5999999.99872
6000000.00134
6000000.00528
5999999.99845
5999999.99411
6000000.00269
6000000.00605
5999999.99798
6000000.00351
5999999.99824
6000000.00632
5999999.99667
5999999.99699
5999999.99655
6000000.00218
6000000.0019
5999999.99582
6000000.00181
6000000.00085
6000000.00032
6000000.00078
5999999.999
6000000.00021
6000000.00047
5999999.99837
6000000.0026
6000000.0023
6000000.00098
6000000.00015
5999999.99965
5999999.99731
5999999.99767
6000000.00054
6000000.00079
5999999.99981
5999999.99861
5999999.99802
6000000.00088
5999999.99663
6000000.00073
5999999.99686
5999999.99389
5999999.99657
6000000.00323
5999999.99761
5999999.99625
6000000.00731
5999999.99874
6000000.00287
6000000.00008
5999999.99704
6000000.00391
5999999.99601
6000000.00335
5999999.99975
5999999.99952
6000000.00068
5999999.99994
6000000.00036
6000000.0001
6000000.00047
6000000.00166
5999999.99832
6000000.00291
6000000.001
5999999.99779
6000000.00177
5999999.99988
5999999.99985
6000000.00398
5999999.99842
6000000.00333
6000000.0031
5999999.99369
5999999.99298
5999999.99569
5999999.99882
6000000.00089
6000000.00182
6000000.0024
5999999.99485
5999999.99168
6000000.00156
5999999.99631
5999999.99865
6000000.00536
5999999.99844
5999999.99885
6000000.00186
5999999.99697
5999999.99797
6000000.00653
5999999.99599
5999999.99901
5999999.99366
6000000.00152
6000000.00523
5999999.9999
5999999.99803
5999999.99117
6000000.00366
5999999.99946
6000000.00414
5999999.99846
5999999.997
6000000.00274
5999999.99497
5999999.99377
6000000.00021
6000000.00293
5999999.99817
5999999.9979
5999999.9976
6000000.00184
6000000.00197
5999999.99805
6000000.0017
5999999.99863
5999999.99927
6000000.00075
5999999.99946
5999999.99986
6000000.00005
6000000.00021
6000000.00112
5999999.99682
6000000.00114
6000000.00023
5999999.99952
5999999.99719
6000000.00142
6000000.00056
5999999.99881
6000000.00116
6000000.00115
5999999.99804
5999999.99928
6000000.00029
5999999.99948
5999999.99724
5999999.99704
5999999.99877
5999999.99607
6000000.00215
6000000.002
6000000.00048
6000000.00038
5999999.99933
6000000.00248
5999999.99808
6000000.00291
6000000.00209
5999999.99531
6000000.00446
6000000.0014
6000000.00049
6000000.00076
5999999.9985
6000000.00205
5999999.99973
5999999.9993
6000000.0008
6000000.00022
5999999.99961
5999999.99775
6000000.00347
5999999.99729
5999999.99961
6000000.00146
5999999.99724
6000000.00317
5999999.99677
6000000.00209
5999999.99908
5999999.99969
5999999.9977
6000000.00262
6000000.00637
5999999.99812
5999999.99803
6000000.00068
6000000.00255
5999999.99857
5999999.99782
6000000.005
5999999.99836
5999999.99988
5999999.99979
6000000.00068
6000000.00298
5999999.99766
6000000.00396
5999999.99848
5999999.99865
6000000.00176
6000000.00004
5999999.99988
6000000.00297
6000000.00084
6000000.00247
5999999.99909
5999999.99888
5999999.99947
5999999.99711
5999999.99519
6000000.00238
6000000.00086
5999999.99876
5999999.99961
5999999.99908
6000000.00004
5999999.9986
6000000.00056
5999999.99946
6000000.00024
5999999.99988
5999999.99999
6000000.00003
5999999.99908
6000000.00048
6000000.00007
5999999.99988
5999999.99989
5999999.99981
6000000.0001
6000000.00014
5999999.99986
5999999.99989
5999999.99982
6000000.00002
5999999.99981
5999999.99992
5999999.99979
5999999.99971
6000000
6000000
5999999.99981
5999999.99998
6000000.00001
5999999.99993
5999999.99864
6000000.0026
5999999.99823
5999999.99937
5999999.99934
5999999.99948
6000000.00004
5999999.99998
6000000.00001
5999999.99999
6000000.00087
6000000.00031
6000000.00002
6000000.00005
5999999.99956
5999999.99765
6000000.00264
6000000.00234
5999999.99889
5999999.99416
5999999.99265
6000000.0018
6000000.00519
6000000.00184
6000000.00411
5999999.99671
6000000.00454
5999999.99377
6000000.00079
5999999.9965
6000000.00045
6000000.00017
6000000.00242
5999999.99912
6000000.00155
5999999.99745
6000000.00138
5999999.99993
6000000.00002
6000000.00026
6000000.00021
5999999.99997
5999999.99949
6000000.00228
5999999.99975
6000000.00001
6000000.00002
5999999.99992
5999999.99989
6000000.00005
6000000.00033
5999999.99934
5999999.99912
5999999.99912
5999999.99895
5999999.99977
5999999.99874
5999999.99747
6000000.00142
6000000.00077
6000000.00074
6000000.00195
5999999.99775
5999999.99721
6000000.00771
6000000.00351
6000000.00108
6000000.00336
5999999.9974
5999999.99914
6000000.00054
5999999.99977
6000000.00045
6000000.00005
6000000.00055
6000000.00019
6000000.00203
5999999.99927
5999999.99861
6000000.00022
5999999.99964
6000000.00012
6000000.00502
5999999.99974
5999999.9977
6000000.00314
6000000.00176
6000000.00079
6000000.00092
5999999.99722
5999999.99819
6000000.00472
6000000.00468
6000000.00275
5999999.99759
5999999.99769
6000000.00257
5999999.99977
5999999.99833
5999999.99747
6000000.00331
6000000.00229
6000000.00003
6000000.00143
5999999.99851
6000000.00103
5999999.99954
6000000.00064
6000000.00065
6000000.00051
6000000.0008
5999999.99942
5999999.99904
6000000.00156
6000000.00134
5999999.99347
5999999.99509
6000000.00357
6000000.00128
5999999.9997
5999999.99846
6000000.00267
5999999.99747
6000000.00085
6000000.00148
6000000.00254
5999999.99354
6000000.00287
6000000.00176
6000000.00516
5999999.99525
5999999.99756
6000000.00141
6000000.00096
5999999.99456
5999999.99839
6000000.00368
6000000.00587
5999999.99885
6000000.00177
6000000.0013
6000000.00449
5999999.99716
6000000.00121
6000000.0017
5999999.99595
6000000.00329
6000000.00295
6000000.00566
6000000.00884
5999999.99513
5999999.9978
6000000.00407
6000000.00652
5999999.99423
5999999.99418
6000000.00238
5999999.99768
6000000.00001
6000000.00059
5999999.99685
6000000.00233
5999999.99755
6000000.00112
5999999.99683
5999999.9951
6000000.00311
6000000.00342
5999999.99894
6000000.00344
6000000.00151
6000000.00047
5999999.99954
5999999.99945
5999999.99803
6000000.0039
6000000.00769
5999999.99641
5999999.99875
5999999.9921
6000000.00517
6000000.00665
5999999.99571
5999999.99701
5999999.99606
5999999.99763
5999999.99631
6000000.00047
5999999.99936
6000000.00088
5999999.99941
5999999.99949
6000000.00295
5999999.99498
5999999.99518
5999999.99647
6000000.00592
6000000.00011
5999999.99925
6000000.00097
5999999.9996
6000000.00221
5999999.99937
6000000.00156
6000000.00615
5999999.99615
5999999.99488
5999999.99355
6000000.00266
6000000.00248
5999999.99274
5999999.9974
5999999.99673
6000000.00136
5999999.99851
5999999.99402
6000000.0043
6000000.00382
6000000.00004
6000000.00089
5999999.99999
6000000.00024
6000000.00032
6000000.00015
6000000.00001
5999999.99998
5999999.99991
5999999.99988
6000000.00015
6000000.00012
5999999.99903
6000000.00163
6000000.00537
6000000.00011
6000000.00054
6000000.00233
5999999.99924
6000000.00273
6000000.00071
5999999.99971
5999999.99991
5999999.99983
6000000.00156
5999999.99766
5999999.99738
6000000.00123
5999999.99717
6000000.00081
5999999.99912
5999999.99973
5999999.99962
5999999.99999
5999999.99985
6000000.00004
6000000.00007
5999999.99752
6000000.00291
5999999.99885
5999999.99933
5999999.99991
5999999.99723
6000000.00092
6000000.00079
6000000.00004
6000000.00034
5999999.99891
6000000.00328
5999999.99987
6000000.00005
6000000.00052
5999999.99954
6000000.0004
5999999.99813
6000000.00485
6000000.00319
5999999.99607
5999999.99818
6000000.00227
5999999.99805
6000000.00331
5999999.99937
6000000.00001
6000000.00004
5999999.99964
6000000.00013
5999999.99949
6000000.00105
5999999.9975
6000000.00183
6000000.00086
6000000.00076
5999999.99968
6000000.00033
5999999.99707
6000000.00678
6000000.00316
5999999.99465
6000000.00149
6000000.00318
6000000.00426
5999999.99664
5999999.99521
6000000.00305
5999999.99872
5999999.99959
6000000.00011
5999999.99994
5999999.99992
5999999.99997
6000000.00002
5999999.99989
5999999.99993
5999999.99988
6000000.00016
5999999.99876
6000000.00178
5999999.99749
5999999.99949
6000000.00133
5999999.994
6000000.00473
6000000.00501
6000000.00169
5999999.99911
6000000.00337
6000000.00511
5999999.99748
5999999.99623
6000000.00356
5999999.9996
6000000.00336
6000000.0051
6000000.00057
6000000.00596
6000000.00004
5999999.99977
6000000.00097
6000000.00063
5999999.99988
6000000.00001
6000000.0034
5999999.99857
6000000.00105
6000000.00189
6000000.00314
6000000.00231
5999999.99412
6000000.00135
6000000.00052
6000000.00023
5999999.99916
6000000.00527
6000000.0028
5999999.99815
6000000.00262
6000000.00014
5999999.99974
6000000.00068
5999999.99933
6000000.00187
5999999.99335
6000000.00297
6000000.0017
5999999.99969
5999999.99927
6000000.00001
6000000.00081
6000000.00005
6000000.00002
6000000.00002
6000000
6000000.00001
5999999.99989
6000000.00001
5999999.99981
6000000
6000000.00011
5999999.99932
6000000.00093
5999999.99992
5999999.99979
5999999.9998
6000000.00005
5999999.99873
6000000.00006
6000000.00035
6000000.00069
5999999.99815
5999999.99824
6000000.00101
6000000.00121
5999999.99924
6000000.00084
5999999.99858
6000000.00247
6000000.00201
6000000.00053
6000000.00033
5999999.9995
5999999.99881
6000000.00218
5999999.99523
6000000.00673
5999999.99669
5999999.9951
6000000.00429
6000000.00394
6000000.00531
6000000.00005
6000000.00014
5999999.99552
5999999.99485
5999999.99592
6000000.0015
5999999.99765
6000000.00481
5999999.99945
5999999.99786
6000000.00072
5999999.99773
6000000.00145
5999999.99803
6000000.00466
5999999.99395
5999999.99626
6000000.00483
5999999.99546
5999999.9969
5999999.99834
6000000.00142
6000000.00131
6000000.00097
6000000.00002
6000000.00099
6000000.00015
6000000.00214
5999999.9961
6000000.00153
6000000.00088
5999999.9999
5999999.9979
5999999.99977
5999999.9997
5999999.99784
5999999.99889
6000000.00102
5999999.99995
6000000.00124
6000000.00182
5999999.99805
5999999.99894
6000000.00388
5999999.99941
5999999.99985
5999999.99998
6000000.00001
6000000.00001
6000000.00014
6000000.00002
5999999.99996
6000000.00044
6000000.00035
5999999.99673
6000000.00047
5999999.99995
5999999.99978
6000000.00002
6000000.0003
5999999.99815
6000000.00295
6000000.00199
5999999.99501
6000000.00676
5999999.99384
5999999.9926
6000000.00308
6000000.00571
5999999.99271
5999999.99769
5999999.99767
5999999.99961
6000000.00177
5999999.99828
6000000.00088
5999999.99669
5999999.99734
6000000.00003
5999999.99805
6000000.00253
5999999.99749
6000000.00175
6000000.00313
5999999.99536
5999999.99627
5999999.99505
5999999.99967
6000000.0046
6000000.00171
5999999.99623
5999999.99302
6000000.00407
6000000.00322
5999999.9947
5999999.99878
6000000.00517
6000000.00414
5999999.99747
5999999.99823
6000000.00364
5999999.99979
6000000.00002
6000000.00001
5999999.99996
6000000.0005
6000000.00151
5999999.9986
5999999.9984
5999999.99911
6000000.00006
6000000.00106
5999999.9998
6000000.00042
5999999.99856
5999999.99792
6000000.00133
6000000.00032
6000000.00005
6000000.00002
6000000.00001
5999999.99992
5999999.99996
6000000.00012
5999999.99953
5999999.99865
6000000.00021
6000000.00251
5999999.9979
5999999.99987
5999999.99995
5999999.9955
6000000.00104
6000000.00061
6000000.0035
6000000.00152
5999999.99989
6000000.00089
6000000.00042
5999999.99782
6000000.00323
5999999.99722
6000000.00252
6000000.00126
6000000.00434
5999999.99965
5999999.99964
6000000.00597
6000000.00243
6000000.00278
6000000.00185
5999999.99615
5999999.999
6000000.00228
6000000.00008
5999999.99733
5999999.9977
6000000.00182
5999999.99703
5999999.99931
5999999.99734
6000000.00025
6000000.00213
5999999.99885
5999999.99885
5999999.99872
5999999.99984
5999999.99978
6000000.00083
6000000.00023
6000000.00032
5999999.99927
6000000.00132
6000000.0015
5999999.99776
6000000.00009
6000000.00011
6000000.00002
6000000.00011
6000000.00005
6000000.0006
6000000.00113
5999999.99838
6000000.00217
6000000.00144
5999999.99674
6000000.00438
5999999.99524
5999999.99892
6000000.00268
6000000.00657
6000000.00311
6000000.00192
6000000.0016
5999999.99333
5999999.9975
5999999.99841
5999999.99945
6000000.00278
6000000.00508
5999999.99362
5999999.99706
5999999.99466
6000000.00592
6000000.00278
6000000.00268
5999999.99895
6000000.00066
6000000.00079
6000000.00156
5999999.99954
5999999.99907
5999999.99973
6000000.00003
5999999.99998
6000000.0007
5999999.9992
6000000.00092
5999999.99947
6000000.00011
5999999.99882
5999999.99607
6000000.00261
6000000.0009
5999999.99581
5999999.99522
6000000.00613
5999999.99799
5999999.99563
6000000.00176
6000000.00644
5999999.99521
6000000.00379
5999999.99901
5999999.99859
6000000.00466
5999999.99953
6000000.00015
5999999.99999
6000000
6000000.00007
6000000.00001
6000000.00007
6000000.00002
6000000.00007
6000000.0002
6000000.00025
6000000.00003
6000000.00005
5999999.99969
6000000.00072
6000000.00154
5999999.99601
6000000.00343
6000000.00515
5999999.99853
6000000.00168
6000000.00169
6000000.00189
5999999.99949
6000000.00042
5999999.99345
6000000.00105
5999999.99921
6000000.00147
6000000.00206
5999999.99901
5999999.99871
5999999.99922
5999999.99927
6000000.00019
5999999.99884
6000000.00105
6000000.00211
5999999.99853
5999999.99946
5999999.99924
6000000.00071
6000000.00007
6000000
5999999.99997
5999999.99943
6000000.00056
5999999.99935
5999999.99776
6000000.00321
5999999.99686
6000000.00169
5999999.99921
5999999.9995
5999999.99976
5999999.99929
6000000.00197
5999999.99536
6000000.00204
5999999.99941
5999999.99949
6000000.00002
5999999.99944
5999999.99986
5999999.99985
6000000.00072
5999999.9989
5999999.9993
5999999.99997
5999999.99993
5999999.99992
5999999.99998
6000000.00009
5999999.99993
5999999.9998
6000000
5999999.99989
5999999.9999
6000000.00001
5999999.99976
6000000.001
5999999.99983
6000000.00013
6000000.00014
6000000.00112
5999999.99849
6000000.00183
5999999.99689
6000000.00209
6000000.0013
6000000.00195
6000000.00247
5999999.99687
5999999.99949
5999999.99835
6000000.00193
5999999.99912
5999999.99767
6000000.00106
5999999.99871
5999999.99934
5999999.99978
6000000.00029
6000000.00377
6000000.00139
6000000.00332
5999999.99891
6000000.00029
6000000.00212
5999999.9953
6000000.00119
5999999.99672
6000000.00451
6000000.00235
5999999.99478
5999999.99512
5999999.99529
6000000.0054
6000000.00195
6000000.0059
5999999.99695
5999999.99743
6000000.00088
5999999.99459
5999999.99497
5999999.99732
5999999.9981
6000000.00169
5999999.9957
5999999.99735
5999999.99279
5999999.9999
5999999.9951
5999999.99778
5999999.99705
5999999.99694
5999999.99627
5999999.99526
6000000.00374
6000000.00091
6000000.00098
5999999.9954
6000000.00166
6000000.00003
5999999.99978
6000000.00055
5999999.99924
6000000.00001
5999999.99662
6000000.00361
5999999.99434
5999999.99451
6000000.00184
5999999.99466
5999999.99508
6000000.00615
5999999.99525
5999999.99397
6000000.00078
6000000.00166
5999999.99974
6000000.0008
6000000.00019
6000000.00009
5999999.99993
6000000.00052
5999999.99952
6000000.00044
5999999.99971
6000000.00017
6000000.00011
5999999.99992
5999999.99993
6000000.00003
6000000.00086
5999999.99931
5999999.99952
6000000.00127
5999999.99991
5999999.99993
5999999.99981
5999999.99957
5999999.99901
6000000.00027
6000000.00001
5999999.99996
5999999.99993
5999999.99955
6000000.00039
6000000.00157
5999999.99898
6000000.00097
6000000.00224
6000000.00241
5999999.99676
5999999.99784
6000000.00254
5999999.99961
6000000.00083
6000000.00055
5999999.99737
6000000.00239
6000000.00188
6000000.00028
5999999.99863
6000000.00007
5999999.99803
6000000.00272
6000000.00041
6000000.00118
5999999.99898
5999999.9982
6000000.00519
6000000.00526
5999999.99283
5999999.99712
6000000.00191
6000000.00152
5999999.99882
6000000.00129
6000000.00001
6000000.003
5999999.99907
6000000.0017
5999999.9997
5999999.99976
6000000
6000000.00004
5999999.99997
5999999.99998
5999999.99998
6000000.00001
6000000.00004
6000000.00014
6000000
6000000
6000000.00001
5999999.99998
6000000.00016
5999999.99999
6000000.00001
5999999.99993
5999999.99996
6000000.00014
6000000.00014
5999999.99995
6000000.00014
5999999.99999
6000000
5999999.9999
6000000.00016
5999999.99995
6000000.00015
5999999.99983
5999999.99953
5999999.99944
6000000.00002
5999999.99997
6000000.00211
5999999.99937
5999999.99971
5999999.99989
6000000.0001
6000000.00003
6000000.00011
5999999.99993
6000000.00001
6000000
5999999.99998
5999999.99934
6000000.00056
5999999.99889
6000000.00272
5999999.99977
5999999.99885
6000000.0015
5999999.99875
6000000.00302
6000000.00382
5999999.99904
5999999.99972
6000000.00632
6000000.00089
6000000.00069
6000000.00061
5999999.99975
6000000.00004
6000000.00007
6000000.00026
6000000.00008
6000000.00006
6000000.00014
5999999.99947
6000000.00077
6000000.00032
6000000.00023
6000000.00018
5999999.99989
6000000.00002
5999999.99992
6000000.00002
5999999.99999
6000000.00072
5999999.99843
5999999.99763
6000000.00295
5999999.99788
6000000.00285
5999999.99717
5999999.99919
5999999.99998
5999999.9974
5999999.99938
6000000.00311
5999999.99578
5999999.99437
6000000.00097
5999999.99405
5999999.99333
6000000.00139
5999999.9972
5999999.99925
5999999.99609
6000000.00202
6000000.00186
5999999.99733
6000000.0039
5999999.99806
5999999.99813
6000000.00203
6000000.00182
6000000.0001
5999999.99953
5999999.99978
6000000.00004
5999999.99992
5999999.99969
6000000.00122
5999999.99951
6000000.00156
5999999.9986
5999999.99853
6000000.00023
5999999.99891
5999999.99945
5999999.99818
5999999.99896
5999999.99897
5999999.99995
5999999.99894
6000000.00362
5999999.9995
5999999.99866
5999999.99974
5999999.99998
5999999.99996
5999999.99983
5999999.99984
6000000.00022
5999999.99998
5999999.99996
6000000.00014
6000000.00009
5999999.99998
6000000.00007
5999999.99998
6000000.00017
6000000.00013
6000000.00059
5999999.99792
5999999.99885
6000000.00074
6000000.00004
5999999.99998
5999999.99997
6000000.00001
5999999.99989
5999999.9998
6000000.00007
5999999.99994
5999999.99921
6000000.00056
5999999.99945
6000000.00089
5999999.99953
6000000.00004
6000000.00148
5999999.99957
6000000.00015
5999999.99994
6000000.00005
5999999.99991
6000000
5999999.99983
5999999.99991
5999999.99998
5999999.99982
5999999.99897
6000000.00023
5999999.99907
6000000.00256
5999999.99877
6000000.00065
6000000.00025
5999999.99986
6000000.00006
6000000.00087
5999999.99936
5999999.99564
6000000.00282
6000000.00018
6000000.00012
6000000.00039
6000000.00111
6000000.00068
5999999.99805
6000000.00326
6000000.00327
6000000.00019
5999999.9983
6000000.0025
6000000.00173
5999999.99842
6000000.00451
6000000.00036
6000000.00254
5999999.99692
5999999.99771
6000000.00092
5999999.99908
5999999.99991
5999999.99716
6000000.00341
6000000.00066
5999999.99928
6000000.00021
5999999.99844
6000000.00257
5999999.99858
6000000.00164
5999999.99567
6000000.00513
6000000.0042
5999999.99804
6000000.00134
5999999.99361
5999999.99304
6000000.00344
6000000.00267
6000000.00493
5999999.99877
5999999.9961
6000000.00433
5999999.99655
5999999.99862
5999999.99889
5999999.99859
6000000.00063
5999999.99939
6000000.00016
5999999.99972
5999999.99967
6000000.00021
5999999.99809
6000000.00156
5999999.9997
5999999.99932
6000000.00154
5999999.99875
6000000.00097
5999999.99659
6000000.00012
5999999.99998
5999999.99964
5999999.99847
5999999.99846
6000000.00145
6000000.00112
5999999.99944
6000000.00597
6000000.00236
5999999.99547
6000000.00265
5999999.99871
6000000.0059
6000000.00427
5999999.99725
5999999.99574
5999999.99881
6000000.00647
6000000.00202
5999999.99749
5999999.99678
5999999.99529
6000000.00294
5999999.99681
5999999.99506
5999999.99839
5999999.99466
6000000.0041
5999999.99735
5999999.99718
5999999.9988
6000000.0016
5999999.99755
5999999.99802
6000000.00151
6000000.0011
5999999.99694
5999999.99754
5999999.996
5999999.99619
5999999.99712
5999999.99816
6000000.00055
5999999.99394
5999999.99477
6000000.00108
6000000.00019
5999999.99569
5999999.99594
5999999.99517
5999999.99426
6000000.00438
5999999.99742
5999999.9928
5999999.99971
5999999.99562
6000000.00195
6000000.00519
5999999.99252
5999999.99443
5999999.99764
6000000.00553
6000000.00125
5999999.99807
6000000.00346
6000000.00473
5999999.99979
6000000.00609
5999999.99619
5999999.99361
6000000.00369
6000000.00113
5999999.99935
5999999.99465
5999999.99634
6000000.00277
5999999.99596
5999999.99836
6000000.00212
5999999.99896
6000000.0029
6000000.00717
6000000.00327
5999999.99894
5999999.99529
5999999.99721
6000000.00583
6000000.00223
5999999.9956
5999999.99708
6000000.00089
6000000.00628
6000000.001
5999999.99897
5999999.99981
6000000.00197
5999999.99846
5999999.99912
6000000.00395
6000000.00174
5999999.99698
6000000.00269
5999999.9966
5999999.99963
5999999.9974
6000000.00052
6000000.00174
5999999.99404
5999999.99999
6000000.00114
5999999.99416
5999999.99745
6000000.00318
5999999.99817
5999999.99813
6000000.00291
5999999.99839
5999999.99656
5999999.99565
5999999.99825
5999999.99634
5999999.9993
5999999.99792
6000000.00688
5999999.99759
6000000.00042
6000000.00535
5999999.99857
6000000.00198
6000000.00002
6000000.00868
5999999.99706
6000000.00068
6000000.00637
6000000.007
5999999.99889
5999999.99778
6000000.0101
6000000.0079
6000000.00617
5999999.99807
5999999.99786
6000000.00804
6000000.00854
6000000.00178
6000000.00674
6000000.00238
5999999.99483
6000000.0068
6000000.00804
6000000.00012
5999999.99715
6000000.00756
6000000.00264
5999999.99388
6000000.00239
6000000.00216
6000000.00916
6000000.00781
5999999.99759
6000000.00218
6000000.00725
5999999.99618
5999999.99925
6000000.00652
6000000.00932
6000000.00045
6000000.00629
6000000.00561
6000000.00486
5999999.99787
6000000.00111
6000000.00838
6000000.00953
6000000.01016
6000000.00302
6000000.00288
6000000.00641
6000000.01041
5999999.99968
6000000.00285
6000000.00579
5999999.99656
6000000.00575
6000000.00526
6000000.00982
6000000.00421
6000000.00742
6000000.00579
5999999.99348
6000000.00688
6000000.00223
5999999.99839
6000000.00879
5999999.99885
5999999.99984
5999999.99873
6000000.00046
5999999.99826
5999999.99986
5999999.99885
5999999.99954
5999999.9993
5999999.99945
5999999.99738
5999999.99779
5999999.99963
5999999.99821
6000000.00021
5999999.99824
5999999.99903
5999999.9982
6000000.00018
5999999.99799
5999999.99737
5999999.99867
5999999.9997
5999999.99871
5999999.99876
5999999.99965
5999999.99761
5999999.9985
5999999.99934
5999999.99574
5999999.99829
6000000.00025
5999999.99933
5999999.99661
5999999.99946
5999999.99752
5999999.99985
5999999.9989
5999999.99874
5999999.99694
5999999.99911
6000000.00006
5999999.99787
5999999.99941
5999999.99969
5999999.99883
5999999.9988
5999999.99921
5999999.99668
5999999.99687
5999999.99942
5999999.9999
6000000.00022
6000000.00057
5999999.99834
5999999.99905
5999999.99794
5999999.99822
5999999.99834
5999999.99872
5999999.99962
6000000.00049
6000000.00211
5999999.99832
5999999.99936
5999999.99942
5999999.99984
5999999.99969
6000000.00069
5999999.99974
5999999.99953
6000000.00033
5999999.99977
5999999.99971
5999999.99971
5999999.99976
6000000.00048
5999999.99999
5999999.9998
5999999.99965
6000000.00027
6000000.00037
5999999.99985
6000000.00025
5999999.99982
6000000.00037
5999999.99988
5999999.99976
6000000.00014
5999999.99993
6000000.00043
5999999.99984
6000000.00005
5999999.99946
6000000.00032
6000000.0004
6000000.00024
6000000.00053
5999999.99989
6000000.00045
6000000.00048
5999999.9997
6000000.0001
5999999.99985
6000000.00035
6000000.00008
5999999.99965
6000000.00042
6000000.00023
6000000.00046
6000000.00028
5999999.99957
5999999.99977
5999999.99973
6000000.00014
6000000.00001
6000000.00035
6000000.00038
5999999.99969
5999999.99998
6000000.00026
5999999.99994
6000000.00034
6000000.00017
6000000.00023
6000000.00044
5999999.99971
6000000.00057
6000000.00065
6000000.00094
6000000.00096
6000000.00107
6000000.00063
6000000.00096
6000000.0008
6000000.00122
6000000.00072
6000000.00079
6000000.00081
6000000.00083
6000000.00077
6000000.00081
6000000.00088
6000000.00096
6000000.00073
6000000.00087
6000000.00105
6000000.00088
6000000.00101
6000000.00116
6000000.0007
6000000.00101
6000000.00089
6000000.00084
6000000.00067
6000000.00052
6000000.00093
6000000.00085
6000000.00081
6000000.0009
6000000.00083
6000000.00118
6000000.00069
6000000.00093
6000000.00066
6000000.00084
6000000.00057
6000000.00081
6000000.00096
6000000.00096
6000000.00095
6000000.00087
6000000.00086
6000000.00091
6000000.00079
6000000.00096
6000000.00111
6000000.00114
6000000.00074
6000000.00084
6000000.00078
6000000.00094
6000000.00096
6000000.0009
6000000.00094
6000000.00096
6000000.00096
6000000.00091
6000000.00087
6000000.00116
6000000.00132
6000000.00085
5999999.99904
5999999.99875
5999999.99888
5999999.99902
5999999.9988
5999999.99925
5999999.99886
5999999.99883
5999999.99872
5999999.99876
5999999.99889
5999999.99909
5999999.99905
5999999.9989
5999999.99866
5999999.99881
5999999.99876
5999999.99906
5999999.9989
5999999.9991
5999999.99887
5999999.99881
5999999.99914
5999999.99903
5999999.99881
5999999.99891
5999999.99937
5999999.99881
5999999.99896
5999999.99907
5999999.99901
5999999.99944
5999999.99908
5999999.99911
5999999.99885
5999999.99888
5999999.99912
5999999.99874
5999999.99861
5999999.99871
5999999.99905
5999999.99907
5999999.99885
5999999.99904
5999999.99896
5999999.99898
5999999.99935
5999999.99909
5999999.99884
5999999.99899
5999999.99887
5999999.99869
5999999.99887
5999999.99868
5999999.99897
5999999.99889
5999999.99902
5999999.99903
5999999.99891
5999999.99892
5999999.99885
5999999.99904
5999999.99887
5999999.99885
5999999.99956